# Ni-bulk/
 
           4  atoms
           1  atom types
 
      0.000000000000       3.512081000000  xlo xhi
      0.000000000000       3.512081000000  ylo yhi
      0.000000000000       3.512081000000  zlo zhi
 
Masses
 
            1   58.69340000             # Ni
 
Atoms # charge
 
         1    1   0.000000        0.000000000000       0.000000000000       0.000000000000
         2    1   0.000000        0.000000000000       1.756041000000       1.756041000000
         3    1   0.000000        1.756041000000       0.000000000000       1.756041000000
         4    1   0.000000        1.756041000000       1.756041000000       0.000000000000
