ITEM: TIMESTEP
0
ITEM: NUMBER OF ATOMS
4
ITEM: BOX BOUNDS pp pp pp
0.0000000000000000e+00 3.5120809999999998e+00
0.0000000000000000e+00 3.5120809999999998e+00
0.0000000000000000e+00 3.5120809999999998e+00
ITEM: ATOMS id x y z fx fy fz 
1 0 0 0 0.000148037 0.000148037 0.000148037 
2 0 1.75604 1.75604 0.000148037 -0.000148037 -0.000148037 
3 1.75604 0 1.75604 -0.000148037 0.000148037 -0.000148037 
4 1.75604 1.75604 0 -0.000148037 -0.000148037 0.000148037 
ITEM: TIMESTEP
1
ITEM: NUMBER OF ATOMS
4
ITEM: BOX BOUNDS pp pp pp
0.0000000000000000e+00 3.5120809999999998e+00
0.0000000000000000e+00 3.5120809999999998e+00
0.0000000000000000e+00 3.5120809999999998e+00
ITEM: ATOMS id x y z fx fy fz 
1 0 0 0 0.000148037 0.000148037 0.000148037 
2 0 1.75604 1.75604 0.000148037 -0.000148037 -0.000148037 
3 1.75604 0 1.75604 -0.000148037 0.000148037 -0.000148037 
4 1.75604 1.75604 0 -0.000148037 -0.000148037 0.000148037 
ITEM: TIMESTEP
2
ITEM: NUMBER OF ATOMS
4
ITEM: BOX BOUNDS pp pp pp
0.0000000000000000e+00 3.5120809999999998e+00
0.0000000000000000e+00 3.5120809999999998e+00
0.0000000000000000e+00 3.5120809999999998e+00
ITEM: ATOMS id x y z fx fy fz 
1 1.05529e-09 1.05529e-09 1.05529e-09 0.000147412 0.000147412 0.000147412 
2 1.05529e-09 1.75604 1.75604 0.000147412 -0.000147412 -0.000147412 
3 1.75604 1.05529e-09 1.75604 -0.000147412 0.000147412 -0.000147412 
4 1.75604 1.75604 1.05529e-09 -0.000147412 -0.000147412 0.000147412 
ITEM: TIMESTEP
3
ITEM: NUMBER OF ATOMS
4
ITEM: BOX BOUNDS pp pp pp
0.0000000000000000e+00 3.5120809999999998e+00
0.0000000000000000e+00 3.5120809999999998e+00
0.0000000000000000e+00 3.5120809999999998e+00
ITEM: ATOMS id x y z fx fy fz 
1 3.16588e-09 3.16588e-09 3.16588e-09 0.000146163 0.000146163 0.000146163 
2 3.16588e-09 1.75604 1.75604 0.000146163 -0.000146163 -0.000146163 
3 1.75604 3.16588e-09 1.75604 -0.000146163 0.000146163 -0.000146163 
4 1.75604 1.75604 3.16588e-09 -0.000146163 -0.000146163 0.000146163 
ITEM: TIMESTEP
4
ITEM: NUMBER OF ATOMS
4
ITEM: BOX BOUNDS pp pp pp
0.0000000000000000e+00 3.5120809999999998e+00
0.0000000000000000e+00 3.5120809999999998e+00
0.0000000000000000e+00 3.5120809999999998e+00
ITEM: ATOMS id x y z fx fy fz 
1 6.32731e-09 6.32731e-09 6.32731e-09 0.00014429 0.00014429 0.00014429 
2 6.32731e-09 1.75604 1.75604 0.00014429 -0.00014429 -0.00014429 
3 1.75604 6.32731e-09 1.75604 -0.00014429 0.00014429 -0.00014429 
4 1.75604 1.75604 6.32731e-09 -0.00014429 -0.00014429 0.00014429 
ITEM: TIMESTEP
5
ITEM: NUMBER OF ATOMS
4
ITEM: BOX BOUNDS pp pp pp
0.0000000000000000e+00 3.5120809999999998e+00
0.0000000000000000e+00 3.5120809999999998e+00
0.0000000000000000e+00 3.5120809999999998e+00
ITEM: ATOMS id x y z fx fy fz 
1 1.05307e-08 1.05307e-08 1.05307e-08 0.000141801 0.000141801 0.000141801 
2 1.05307e-08 1.75604 1.75604 0.000141801 -0.000141801 -0.000141801 
3 1.75604 1.05307e-08 1.75604 -0.000141801 0.000141801 -0.000141801 
4 1.75604 1.75604 1.05307e-08 -0.000141801 -0.000141801 0.000141801 
ITEM: TIMESTEP
6
ITEM: NUMBER OF ATOMS
4
ITEM: BOX BOUNDS pp pp pp
0.0000000000000000e+00 3.5120809999999998e+00
0.0000000000000000e+00 3.5120809999999998e+00
0.0000000000000000e+00 3.5120809999999998e+00
ITEM: ATOMS id x y z fx fy fz 
1 1.57626e-08 1.57626e-08 1.57626e-08 0.000138703 0.000138703 0.000138703 
2 1.57626e-08 1.75604 1.75604 0.000138703 -0.000138703 -0.000138703 
3 1.75604 1.57626e-08 1.75604 -0.000138703 0.000138703 -0.000138703 
4 1.75604 1.75604 1.57626e-08 -0.000138703 -0.000138703 0.000138703 
