 # LAMMPS data file written by Ovito Pyth
 
          41  atoms
           3  atom types
 
      0.000000000000       7.495103000000  xlo xhi
      0.000000000000       7.495178000000  ylo yhi
      0.000000000000      20.111915000000  zlo zhi
 
Masses
 
            1   63.54600000             # Cu
            2   58.69340000             # Ni
            3   15.99900000             # O
 
Atoms # charge
 
         1    1   0.000000        0.785877309502       2.652665822796       1.053679325961
         2    1   0.000000        4.502547526480       2.647480729585       1.046479104117
         3    1   0.000000        6.387623138909       0.799016524507       1.038232809869
         4    1   0.000000        0.791770330831       6.423767441720       1.049858637836
         5    1   0.000000        2.642070363274       4.534864168760       1.033255729422
         6    1   0.000000        4.483487558607       6.423472005809       1.051877680533
         7    1   0.000000        6.389834669062       4.524019895711       1.029892175795
         8    1   0.000000        0.755111745539       0.794083900162       2.709674810061
         9    1   0.000000        2.648978109240       2.682235039853       2.693743172922
        10    1   0.000000        4.527009252146       0.796065752951       2.711243372598
        11    1   0.000000        6.389766023359       2.660488694547       2.703801922507
        12    1   0.000000        2.635657839565       6.395956585246       2.725930931695
        13    1   0.000000        4.514185648407       4.524677456048       2.674309227968
        14    1   0.000000        6.386669646192       6.409546265316       2.653245131558
        15    1   0.000000        0.804465684610       2.678976300633       4.414567541925
        16    1   0.000000        2.641080683781       0.834840511928       4.387912278675
        17    1   0.000000        4.490771530408       2.676754892859       4.424619293153
        18    1   0.000000        6.391510156572       0.772917759900       4.396256437290
        19    1   0.000000        0.736988962822       6.391230090784       4.372917735892
        20    1   0.000000        2.645746602138       4.498088613946       4.426836294444
        21    1   0.000000        4.539643858432       6.385713699300       4.362004200879
        22    1   0.000000        6.391274778669       4.546893093578       4.370528951294
        23    1   0.000000        0.767219453854       0.756649479653       6.070380149691
        24    1   0.000000        4.519996373232       0.752243880573       6.053339861663
        25    1   0.000000        6.399349045994       2.676685771255       6.034663200139
        26    1   0.000000        0.751613300554       4.560395295488       6.121228722808
        27    1   0.000000        2.640405298713       6.418344657319       5.997233313394
        28    1   0.000000        4.539181031814       4.561278114019       6.101022246034
        29    1   0.000000        0.738390089668       2.634335885661       7.704561914250
        30    1   0.000000        0.774668084831       6.428487141761       7.776811953308
        31    1   0.000000        4.505703323743       6.426618101131       7.770288216651
        32    1   0.000000        6.366381332084       4.498786232239       7.782621825511
        33    1   0.000000        2.640348424812       0.793078173443       1.081531811810
        34    1   0.000000        0.772288193144       4.532977612763       2.680814820581
        35    1   0.000000        2.643728965750       2.672678712049       6.175258613895
        36    1   0.000000        6.388444490481       6.388968677329       6.119997174304
        37    1   0.000000        6.371848211270       0.812079832131       7.718529105767
        38    2   0.000000        2.657494120978       0.714233421473       7.620929359505
        39    2   0.000000        2.661789905864       4.644895308011       7.639016122509
        40    2   0.000000        4.560077020692       2.635173022041       7.619793307811
        41    3   0.000000        2.505180913976       2.664997435725      12.925055513979
