LAMMPS (3 Mar 2020)
# minimizing input file for REAX optimization
variable        dt equal 1.0

units           real
boundary        p p p
# needed for triclinic systems w large skew
box		tilt large

atom_style      charge
read_data       data.cu
  orthogonal box = (0 0 0) to (7.4951 7.49518 20.1119)
  1 by 1 by 1 MPI processor grid
  reading atoms ...
  41 atoms
  read_data CPU = 0.000908 secs

mass		1 63.5463
mass		2 58.6934
mass		3 15.9999

pair_style	reax/c NULL safezone 2.4 mincap 200
pair_coeff	* * ffield.reax.temp Cu Ni O

neighbor	2 bin
neigh_modify	every 10 delay 0 check no

fix             reax all qeq/reax 1 0.0 10.0 1e-6 reax/c

timestep        ${dt}
timestep        1

thermo          1
thermo_style    custom step etotal pe atoms
thermo_modify   lost ignore

dump            3 all custom 1 forces.dat id x y z fx fy fz
dump_modify	3 sort id

# configuration output section
min_style       quickmin
minimize        1.0e-8 1.0e-6 1000 1000
WARNING: Using 'neigh_modify every 1 delay 0 check yes' setting during minimization (src/min.cpp:190)
Neighbor list info ...
  update every 1 steps, delay 0 steps, check yes
  max neighbors/atom: 2000, page size: 100000
  master list distance cutoff = 12
  ghost atom cutoff = 12
  binsize = 6, bins = 2 2 4
  2 neighbor lists, perpetual/occasional/extra = 2 0 0
  (1) pair reax/c, perpetual
      attributes: half, newton off, ghost
      pair build: half/bin/newtoff/ghost
      stencil: half/ghost/bin/3d/newtoff
      bin: standard
  (2) fix qeq/reax, perpetual, copy from (1)
      attributes: half, newton off, ghost
      pair build: copy
      stencil: none
      bin: none
Per MPI rank memory allocation (min/avg/max) = 62.6 | 62.6 | 62.6 Mbytes
Step TotEng PotEng Atoms 
       0   -3449.6204   -3449.6204       41 
       1   -3449.5732   -3449.6204       41 
       2   -3449.5258   -3449.7149       41 
       3   -3449.4782   -3449.9034       41 
       4   -3449.4304   -3450.1848       41 
       5   -3449.3824   -3450.5572       41 
       6   -3449.3345   -3451.0182       41 
       7   -3449.2865   -3451.5648       41 
       8   -3449.2387   -3452.1934       41 
       9   -3449.1911   -3452.8999       41 
      10    -3449.144   -3453.6799       41 
      11   -3449.0976   -3454.5282       41 
      12    -3449.052   -3455.4397       41 
      13   -3449.0077   -3456.4088       41 
      14   -3448.9647   -3457.4298       41 
      15   -3448.9235   -3458.4966       41 
      16   -3448.8845   -3459.6035       41 
      17   -3448.8478   -3460.7444       41 
      18   -3448.8139   -3461.9136       41 
      19   -3448.7831   -3463.1052       41 
      20   -3448.7558   -3464.3137       41 
      21   -3448.7321   -3465.5339       41 
      22   -3448.7124   -3466.7608       41 
      23   -3448.6967   -3467.9898       41 
      24   -3448.6852   -3469.2164       41 
      25   -3448.6778   -3470.4369       41 
      26   -3448.6743   -3471.6475       41 
      27   -3448.6745   -3472.8452       41 
      28    -3448.678   -3474.0271       41 
      29   -3448.6843   -3475.1907       41 
      30   -3448.6928   -3476.3339       41 
      31   -3448.7029   -3477.4548       41 
      32   -3448.7138   -3478.5517       41 
      33   -3448.7248   -3479.6235       41 
      34   -3448.7355   -3480.6688       41 
      35   -3448.7451   -3481.6869       41 
      36   -3448.7532   -3482.6769       41 
      37   -3448.7595   -3483.6381       41 
      38   -3448.7638   -3484.5702       41 
      39   -3448.7659   -3485.4728       41 
      40    -3448.766   -3486.3455       41 
      41   -3448.7641   -3487.1882       41 
      42   -3448.7606   -3488.0007       41 
      43   -3448.7557    -3488.783       41 
      44   -3448.7499   -3489.5351       41 
      45   -3448.7414   -3490.2572       41 
      46   -3448.7346    -3490.949       41 
      47   -3448.7276   -3491.6104       41 
      48   -3448.7206   -3492.2414       41 
      49   -3448.7136    -3492.842       41 
      50   -3448.7067    -3493.412       41 
      51   -3448.6997   -3493.9513       41 
      52   -3448.6927     -3494.46       41 
      53   -3448.6856   -3494.9379       41 
      54   -3448.6785    -3495.385       41 
      55   -3448.6717   -3495.8015       41 
      56   -3448.6657   -3496.1874       41 
      57   -3448.6615   -3496.5432       41 
      58   -3448.6607   -3496.8694       41 
      59   -3448.6656   -3497.1669       41 
      60   -3448.6791   -3497.4368       41 
      61   -3448.7051   -3497.6804       41 
      62   -3448.7475   -3497.8994       41 
      63   -3448.8099   -3498.0958       41 
      64   -3448.8943   -3498.2718       41 
      65   -3448.9998   -3498.4296       41 
      66   -3449.1237   -3498.5714       41 
      67   -3449.2632   -3498.7001       41 
      68   -3449.4275   -3498.8171       41 
      69   -3449.5938   -3498.9239       41 
      70   -3449.7857   -3499.0223       41 
      71   -3450.0376   -3499.1134       41 
      72   -3450.7368   -3499.1975       41 
      73    -3455.986   -3499.2652       41 
      74   -3486.1681   -3499.2965       41 
      75   -3499.0298   -3499.3035       41 
      76   -3499.0365   -3499.3098       41 
      77    -3499.043   -3499.3158       41 
      78   -3499.0474   -3499.3216       41 
      79   -3499.0498   -3499.3273       41 
      80   -3499.0508   -3499.3331       41 
      81   -3499.0512   -3499.3389       41 
      82   -3499.0514   -3499.3447       41 
      83   -3499.0514   -3499.3506       41 
      84   -3499.0513   -3499.3565       41 
      85   -3499.0513   -3499.3624       41 
      86   -3499.0512   -3499.3684       41 
      87   -3499.0511   -3499.3745       41 
      88   -3499.0511   -3499.3805       41 
      89    -3499.051   -3499.3866       41 
      90   -3499.0509   -3499.3928       41 
      91   -3499.0508    -3499.399       41 
      92   -3499.0508   -3499.4052       41 
      93   -3499.0507   -3499.4114       41 
      94   -3499.0506   -3499.4177       41 
      95   -3499.0505   -3499.4241       41 
      96   -3499.0504   -3499.4304       41 
      97   -3499.0504   -3499.4368       41 
      98   -3499.0503   -3499.4433       41 
      99   -3499.0502   -3499.4498       41 
     100   -3499.0501   -3499.4563       41 
     101     -3499.05   -3499.4628       41 
     102     -3499.05   -3499.4694       41 
     103   -3499.0499    -3499.476       41 
     104   -3499.0498   -3499.4827       41 
     105   -3499.0497   -3499.4894       41 
     106   -3499.0496   -3499.4961       41 
     107   -3499.0495   -3499.5029       41 
     108   -3499.0494   -3499.5097       41 
     109   -3499.0494   -3499.5165       41 
     110   -3499.0493   -3499.5234       41 
     111   -3499.0492   -3499.5303       41 
     112   -3499.0491   -3499.5372       41 
     113    -3499.049   -3499.5442       41 
     114   -3499.0489   -3499.5512       41 
     115   -3499.0488   -3499.5582       41 
     116   -3499.0487   -3499.5652       41 
     117   -3499.0486   -3499.5723       41 
     118   -3499.0485   -3499.5795       41 
     119   -3499.0484   -3499.5866       41 
     120   -3499.0483   -3499.5938       41 
     121   -3499.0482    -3499.601       41 
     122   -3499.0481   -3499.6083       41 
     123    -3499.048   -3499.6156       41 
     124   -3499.0479   -3499.6229       41 
     125   -3499.0478   -3499.6302       41 
     126   -3499.0477   -3499.6376       41 
     127   -3499.0476    -3499.645       41 
     128   -3499.0475   -3499.6525       41 
     129   -3499.0474   -3499.6599       41 
     130   -3499.0473   -3499.6674       41 
     131   -3499.0472   -3499.6749       41 
     132   -3499.0471   -3499.6825       41 
     133    -3499.047   -3499.6901       41 
     134   -3499.0469   -3499.6977       41 
     135   -3499.0467   -3499.7053       41 
     136   -3499.0466    -3499.713       41 
     137   -3499.0465   -3499.7207       41 
     138   -3499.0464   -3499.7284       41 
     139   -3499.0463   -3499.7362       41 
     140   -3499.0462   -3499.7439       41 
     141    -3499.046   -3499.7517       41 
     142   -3499.0459   -3499.7595       41 
     143   -3499.0458   -3499.7674       41 
     144   -3499.0457   -3499.7752       41 
     145   -3499.0456   -3499.7831       41 
     146   -3499.0454    -3499.791       41 
     147   -3499.0453   -3499.7989       41 
     148   -3499.0452   -3499.8069       41 
     149   -3499.0451   -3499.8148       41 
     150    -3499.045   -3499.8228       41 
     151   -3499.0448   -3499.8308       41 
     152   -3499.0447   -3499.8388       41 
     153   -3499.0446   -3499.8469       41 
     154   -3499.0445   -3499.8549       41 
     155   -3499.0443    -3499.863       41 
     156   -3499.0442    -3499.871       41 
     157   -3499.0441   -3499.8791       41 
     158    -3499.044   -3499.8872       41 
     159   -3499.0438   -3499.8953       41 
     160   -3499.0437   -3499.9034       41 
     161   -3499.0436   -3499.9115       41 
     162   -3499.0435   -3499.9196       41 
     163   -3499.0434   -3499.9278       41 
     164   -3499.0433   -3499.9359       41 
     165   -3499.0431    -3499.944       41 
     166    -3499.043   -3499.9521       41 
     167   -3499.0429   -3499.9602       41 
     168   -3499.0428   -3499.9684       41 
     169   -3499.0427   -3499.9765       41 
     170   -3499.0426   -3499.9846       41 
     171   -3499.0426   -3499.9927       41 
     172   -3499.0425   -3500.0007       41 
     173   -3499.0424   -3500.0088       41 
     174   -3499.0423   -3500.0169       41 
     175   -3499.0422   -3500.0249       41 
     176   -3499.0422   -3500.0329       41 
     177   -3499.0421   -3500.0409       41 
     178    -3499.042   -3500.0489       41 
     179    -3499.042   -3500.0569       41 
     180    -3499.042   -3500.0648       41 
     181   -3499.0419   -3500.0727       41 
     182   -3499.0419   -3500.0806       41 
     183   -3499.0419   -3500.0885       41 
     184   -3499.0419   -3500.0963       41 
     185   -3499.0419   -3500.1041       41 
     186    -3499.042   -3500.1118       41 
     187    -3499.042   -3500.1195       41 
     188   -3499.0421   -3500.1272       41 
     189   -3499.0422   -3500.1349       41 
     190   -3499.0423   -3500.1424       41 
     191   -3499.0424     -3500.15       41 
     192   -3499.0425   -3500.1575       41 
     193   -3499.0427   -3500.1649       41 
     194   -3499.0429   -3500.1723       41 
     195   -3499.0431   -3500.1796       41 
     196   -3499.0433   -3500.1869       41 
     197   -3499.0436   -3500.1942       41 
     198   -3499.0439   -3500.2013       41 
     199   -3499.0443   -3500.2084       41 
     200   -3499.0447   -3500.2155       41 
     201   -3499.0451   -3500.2224       41 
     202   -3499.0455   -3500.2294       41 
     203   -3499.0461   -3500.2362       41 
     204   -3499.0466    -3500.243       41 
     205   -3499.0472   -3500.2497       41 
     206   -3499.0479   -3500.2563       41 
     207   -3499.0487   -3500.2629       41 
     208   -3499.0495   -3500.2694       41 
     209   -3499.0504   -3500.2758       41 
     210   -3499.0513   -3500.2821       41 
     211   -3499.0524   -3500.2883       41 
     212   -3499.0535   -3500.2945       41 
     213   -3499.0548   -3500.3006       41 
     214   -3499.0561   -3500.3066       41 
     215   -3499.0576   -3500.3125       41 
     216   -3499.0591   -3500.3183       41 
     217   -3499.0608   -3500.3241       41 
     218   -3499.0627   -3500.3297       41 
     219   -3499.0646   -3500.3353       41 
     220   -3499.0667   -3500.3408       41 
     221    -3499.069   -3500.3462       41 
     222   -3499.0715   -3500.3516       41 
     223   -3499.0741   -3500.3568       41 
     224    -3499.077    -3500.362       41 
     225     -3499.08    -3500.367       41 
     226   -3499.0833    -3500.372       41 
     227   -3499.0868   -3500.3769       41 
     228   -3499.0905   -3500.3817       41 
     229   -3499.0945   -3500.3865       41 
     230   -3499.0988   -3500.3911       41 
     231   -3499.1032   -3500.3957       41 
     232   -3499.1081   -3500.4002       41 
     233   -3499.1131   -3500.4046       41 
     234   -3499.1186   -3500.4091       41 
     235   -3499.5763   -3500.4135       41 
     236    -3499.628   -3500.4176       41 
     237   -3499.6458   -3500.4214       41 
     238   -3499.6546   -3500.4251       41 
     239   -3499.6601   -3500.4287       41 
     240   -3499.6641   -3500.4322       41 
     241   -3499.6675   -3500.4357       41 
     242   -3499.6705   -3500.4391       41 
     243   -3499.6734   -3500.4425       41 
     244   -3499.6762   -3500.4458       41 
     245    -3499.679   -3500.4491       41 
     246   -3499.6817   -3500.4523       41 
     247   -3499.6845   -3500.4555       41 
     248   -3499.6874   -3500.4587       41 
     249   -3499.6903   -3500.4618       41 
     250   -3499.6933   -3500.4649       41 
     251   -3499.6965    -3500.468       41 
     252      -3499.7    -3500.471       41 
     253   -3499.7042    -3500.474       41 
     254   -3499.7093    -3500.477       41 
     255    -3499.717   -3500.4799       41 
     256     -3499.73   -3500.4827       41 
     257   -3499.7549   -3500.4855       41 
     258   -3499.8038   -3500.4882       41 
     259   -3499.8938   -3500.4906       41 
     260   -3500.0228   -3500.4928       41 
     261   -3500.1449   -3500.4946       41 
     262   -3500.2151   -3500.4963       41 
     263   -3500.2424   -3500.4979       41 
     264   -3500.2509   -3500.4995       41 
     265   -3500.2535   -3500.5011       41 
     266   -3500.2543   -3500.5026       41 
     267   -3500.2546   -3500.5042       41 
     268   -3500.2547   -3500.5058       41 
     269   -3500.2548   -3500.5074       41 
     270   -3500.2549   -3500.5089       41 
     271   -3500.2549   -3500.5105       41 
     272    -3500.255   -3500.5121       41 
     273    -3500.255   -3500.5137       41 
     274    -3500.255   -3500.5153       41 
     275    -3500.255   -3500.5169       41 
     276    -3500.255   -3500.5185       41 
     277    -3500.255   -3500.5201       41 
     278   -3500.2549   -3500.5216       41 
     279   -3500.2548   -3500.5232       41 
     280   -3500.2548   -3500.5248       41 
     281   -3500.2547   -3500.5265       41 
     282   -3500.2545   -3500.5281       41 
     283   -3500.2544   -3500.5297       41 
     284   -3500.2542   -3500.5313       41 
     285    -3500.254   -3500.5329       41 
     286   -3500.2538   -3500.5346       41 
     287   -3500.2535   -3500.5362       41 
     288   -3500.2532   -3500.5378       41 
     289   -3500.2529   -3500.5395       41 
     290   -3500.2491   -3500.5412       41 
     291   -3500.2492   -3500.5429       41 
     292    -3500.249   -3500.5446       41 
     293   -3500.2487   -3500.5463       41 
     294   -3500.2483    -3500.548       41 
     295   -3500.2479   -3500.5497       41 
     296   -3500.2474   -3500.5515       41 
     297    -3500.247   -3500.5532       41 
     298   -3500.2464    -3500.555       41 
     299   -3500.2458   -3500.5567       41 
     300   -3500.2452   -3500.5585       41 
     301   -3500.2445   -3500.5603       41 
     302   -3500.2438    -3500.562       41 
     303    -3500.243   -3500.5638       41 
     304   -3500.2422   -3500.5657       41 
     305   -3500.2413   -3500.5675       41 
     306   -3500.2404   -3500.5693       41 
     307   -3500.2394   -3500.5712       41 
     308   -3500.2383    -3500.573       41 
     309   -3500.2372   -3500.5749       41 
     310   -3500.2361   -3500.5768       41 
     311   -3500.2348   -3500.5787       41 
     312   -3500.2336   -3500.5806       41 
     313   -3500.2322   -3500.5826       41 
     314   -3500.2308   -3500.5845       41 
     315   -3500.2294   -3500.5865       41 
     316   -3500.2279   -3500.5885       41 
     317   -3500.2263   -3500.5905       41 
     318   -3500.2247   -3500.5925       41 
     319    -3500.223   -3500.5946       41 
     320   -3500.2212   -3500.5967       41 
     321   -3500.2194   -3500.5988       41 
     322   -3500.2175   -3500.6009       41 
     323   -3500.2156    -3500.603       41 
     324   -3500.2136   -3500.6052       41 
     325   -3500.2116   -3500.6074       41 
     326   -3500.2095   -3500.6096       41 
     327   -3500.2073   -3500.6119       41 
     328    -3500.205   -3500.6141       41 
     329   -3500.2028   -3500.6164       41 
     330   -3500.2004   -3500.6188       41 
     331   -3500.1981   -3500.6211       41 
     332   -3500.1956   -3500.6235       41 
     333   -3500.1931    -3500.626       41 
     334   -3500.1906   -3500.6284       41 
     335    -3500.188   -3500.6309       41 
     336   -3500.1854   -3500.6335       41 
     337   -3500.1827   -3500.6361       41 
     338   -3500.1801   -3500.6387       41 
     339   -3500.1773   -3500.6413       41 
     340   -3500.1745    -3500.644       41 
     341   -3500.1718   -3500.6468       41 
     342   -3500.1689   -3500.6496       41 
     343   -3500.1661   -3500.6524       41 
     344   -3500.1632   -3500.6553       41 
     345   -3500.1603   -3500.6582       41 
     346   -3500.1574   -3500.6612       41 
     347   -3500.1545   -3500.6642       41 
     348   -3500.1515   -3500.6673       41 
     349   -3500.1486   -3500.6704       41 
     350   -3500.1456   -3500.6736       41 
     351   -3500.1427   -3500.6769       41 
     352   -3500.1397   -3500.6802       41 
     353   -3500.1368   -3500.6836       41 
     354   -3500.1338    -3500.687       41 
     355   -3500.1309   -3500.6905       41 
     356   -3500.1279   -3500.6941       41 
     357    -3500.125   -3500.6977       41 
     358   -3500.1221   -3500.7014       41 
     359   -3500.1192   -3500.7052       41 
     360   -3500.1164   -3500.7091       41 
     361   -3500.1135    -3500.713       41 
     362   -3500.1107    -3500.717       41 
     363   -3500.1079   -3500.7211       41 
     364   -3500.1051   -3500.7252       41 
     365   -3500.1024   -3500.7295       41 
     366   -3500.0997   -3500.7338       41 
     367    -3500.097   -3500.7383       41 
     368   -3500.0943   -3500.7428       41 
     369   -3500.0917   -3500.7474       41 
     370   -3500.0891    -3500.752       41 
     371   -3500.0866   -3500.7568       41 
     372   -3500.0841   -3500.7617       41 
     373   -3500.0816   -3500.7667       41 
     374   -3500.0792   -3500.7718       41 
     375   -3500.0768   -3500.7769       41 
     376   -3500.0745   -3500.7822       41 
     377   -3500.0722   -3500.7876       41 
     378   -3500.0699    -3500.793       41 
     379   -3500.0677   -3500.7986       41 
     380   -3500.0656   -3500.8043       41 
     381   -3500.0635   -3500.8101       41 
     382   -3500.0614   -3500.8159       41 
     383   -3500.0594   -3500.8219       41 
     384   -3500.0574    -3500.828       41 
     385   -3500.0555   -3500.8342       41 
     386   -3500.0536   -3500.8405       41 
     387   -3500.0518   -3500.8469       41 
     388     -3500.05   -3500.8534       41 
     389   -3500.0483   -3500.8599       41 
     390   -3500.0467   -3500.8666       41 
     391   -3500.0451   -3500.8734       41 
     392   -3500.0435   -3500.8802       41 
     393   -3500.0421   -3500.8871       41 
     394   -3500.0407   -3500.8942       41 
     395   -3500.0393   -3500.9012       41 
     396   -3500.0381   -3500.9084       41 
     397   -3500.0369   -3500.9156       41 
     398   -3500.0358   -3500.9228       41 
     399   -3500.0348   -3500.9302       41 
     400   -3500.0339   -3500.9375       41 
     401   -3500.0331   -3500.9449       41 
     402   -3500.0324   -3500.9523       41 
     403   -3500.0318   -3500.9597       41 
     404   -3500.0314   -3500.9671       41 
     405   -3500.0311   -3500.9745       41 
     406    -3500.031   -3500.9819       41 
     407    -3500.031   -3500.9893       41 
     408   -3500.0312   -3500.9966       41 
     409   -3500.0316   -3501.0039       41 
     410   -3500.0323   -3501.0111       41 
     411   -3500.0332   -3501.0183       41 
     412   -3500.0344   -3501.0254       41 
     413   -3500.0358   -3501.0324       41 
     414   -3500.0377   -3501.0393       41 
     415   -3500.0398   -3501.0461       41 
     416   -3500.0425   -3501.0527       41 
     417   -3500.0455   -3501.0593       41 
     418   -3500.0491   -3501.0657       41 
     419   -3500.0533   -3501.0719       41 
     420   -3500.0581   -3501.0781       41 
     421   -3500.0636    -3501.084       41 
     422     -3500.07   -3501.0898       41 
     423   -3500.0773   -3501.0955       41 
     424   -3500.0857    -3501.101       41 
     425   -3500.0953   -3501.1063       41 
     426   -3500.1063   -3501.1114       41 
     427   -3500.1188   -3501.1164       41 
     428    -3500.133   -3501.1212       41 
     429   -3500.1492   -3501.1258       41 
     430   -3500.1676   -3501.1303       41 
     431   -3500.1884   -3501.1346       41 
     432   -3500.2119   -3501.1387       41 
     433   -3500.2381   -3501.1427       41 
     434   -3500.2672   -3501.1465       41 
     435   -3500.2994   -3501.1502       41 
     436   -3500.3343   -3501.1537       41 
     437   -3500.3717   -3501.1571       41 
     438   -3500.4112   -3501.1604       41 
     439   -3500.4521   -3501.1636       41 
     440   -3500.4938   -3501.1667       41 
     441   -3500.5356   -3501.1698       41 
     442   -3500.5792   -3501.1727       41 
     443   -3500.6366   -3501.1753       41 
     444   -3500.7802   -3501.1772       41 
     445   -3501.0626   -3501.1783       41 
     446   -3501.1339   -3501.1792       41 
     447   -3501.1356     -3501.18       41 
     448    -3501.136   -3501.1808       41 
     449   -3501.1364   -3501.1817       41 
     450   -3501.1369   -3501.1826       41 
     451   -3501.1373   -3501.1834       41 
     452   -3501.1378   -3501.1843       41 
     453   -3501.1382   -3501.1852       41 
     454   -3501.1386   -3501.1861       41 
     455   -3501.1391    -3501.187       41 
     456   -3501.1395   -3501.1879       41 
     457   -3501.1399   -3501.1889       41 
     458   -3501.1403   -3501.1898       41 
     459   -3501.1407   -3501.1907       41 
     460   -3501.1411   -3501.1917       41 
     461   -3501.1415   -3501.1927       41 
     462   -3501.1418   -3501.1936       41 
     463   -3501.1422   -3501.1946       41 
     464   -3501.1425   -3501.1956       41 
     465   -3501.1428   -3501.1966       41 
     466   -3501.1431   -3501.1976       41 
     467   -3501.1434   -3501.1986       41 
     468   -3501.1437   -3501.1997       41 
     469    -3501.144   -3501.2007       41 
     470   -3501.1442   -3501.2018       41 
     471   -3501.1444   -3501.2028       41 
     472   -3501.1446   -3501.2039       41 
     473   -3501.1448    -3501.205       41 
     474    -3501.145   -3501.2061       41 
     475   -3501.1452   -3501.2072       41 
     476   -3501.1453   -3501.2084       41 
     477   -3501.1455   -3501.2095       41 
     478   -3501.1456   -3501.2107       41 
     479   -3501.1457   -3501.2118       41 
     480   -3501.1458    -3501.213       41 
     481   -3501.1459   -3501.2142       41 
     482    -3501.146   -3501.2154       41 
     483   -3501.1461   -3501.2166       41 
     484   -3501.1462   -3501.2178       41 
     485   -3501.1462   -3501.2191       41 
     486   -3501.1463   -3501.2203       41 
     487   -3501.1463   -3501.2216       41 
     488   -3501.1463   -3501.2229       41 
     489   -3501.1463   -3501.2241       41 
     490   -3501.1464   -3501.2254       41 
     491   -3501.1464   -3501.2268       41 
     492   -3501.1464   -3501.2281       41 
     493   -3501.1464   -3501.2294       41 
     494   -3501.1463   -3501.2308       41 
     495   -3501.1463   -3501.2322       41 
     496   -3501.1463   -3501.2336       41 
     497   -3501.1463    -3501.235       41 
     498   -3501.1462   -3501.2364       41 
     499   -3501.1462   -3501.2378       41 
     500   -3501.1462   -3501.2393       41 
     501   -3501.1461   -3501.2407       41 
     502   -3501.1461   -3501.2422       41 
     503    -3501.146   -3501.2437       41 
     504    -3501.146   -3501.2452       41 
     505   -3501.1459   -3501.2467       41 
     506   -3501.1459   -3501.2482       41 
     507   -3501.1458   -3501.2498       41 
     508   -3501.1457   -3501.2513       41 
     509   -3501.1457   -3501.2529       41 
     510   -3501.1456   -3501.2545       41 
     511   -3501.1455   -3501.2561       41 
     512   -3501.1454   -3501.2577       41 
     513   -3501.1454   -3501.2594       41 
     514   -3501.1453    -3501.261       41 
     515   -3501.1452   -3501.2627       41 
     516   -3501.1451   -3501.2644       41 
     517   -3501.1451   -3501.2661       41 
     518    -3501.145   -3501.2678       41 
     519   -3501.1449   -3501.2695       41 
     520   -3501.1448   -3501.2713       41 
     521   -3501.1447    -3501.273       41 
     522   -3501.1446   -3501.2748       41 
     523   -3501.1445   -3501.2766       41 
     524   -3501.1444   -3501.2784       41 
     525   -3501.1443   -3501.2803       41 
     526   -3501.1443   -3501.2821       41 
     527   -3501.1441    -3501.284       41 
     528   -3501.1441   -3501.2859       41 
     529    -3501.144   -3501.2878       41 
     530   -3501.1439   -3501.2897       41 
     531   -3501.1438   -3501.2916       41 
     532   -3501.1437   -3501.2936       41 
     533   -3501.1436   -3501.2955       41 
     534   -3501.1435   -3501.2975       41 
     535   -3501.1434   -3501.2995       41 
     536   -3501.1434   -3501.3016       41 
     537   -3501.1434   -3501.3036       41 
     538   -3501.1435   -3501.3057       41 
     539   -3501.1437   -3501.3077       41 
     540   -3501.1441   -3501.3098       41 
     541   -3501.1449   -3501.3119       41 
     542   -3501.1465    -3501.314       41 
     543   -3501.1493   -3501.3161       41 
     544   -3501.1543   -3501.3181       41 
     545   -3501.1627   -3501.3201       41 
     546   -3501.1753    -3501.322       41 
     547   -3501.1913   -3501.3238       41 
     548   -3501.2076   -3501.3255       41 
     549   -3501.2204   -3501.3271       41 
     550   -3501.2288   -3501.3287       41 
     551   -3501.2334   -3501.3304       41 
     552   -3501.2359    -3501.332       41 
     553   -3501.2371   -3501.3336       41 
     554   -3501.2377   -3501.3352       41 
     555   -3501.2379   -3501.3369       41 
     556    -3501.238   -3501.3386       41 
     557    -3501.238   -3501.3403       41 
     558    -3501.238    -3501.342       41 
     559    -3501.238   -3501.3437       41 
     560   -3501.2379   -3501.3454       41 
     561   -3501.2378   -3501.3472       41 
     562   -3501.2377    -3501.349       41 
     563   -3501.2376   -3501.3508       41 
     564   -3501.2375   -3501.3526       41 
     565   -3501.2374   -3501.3544       41 
     566   -3501.2373   -3501.3563       41 
     567   -3501.2372   -3501.3582       41 
     568   -3501.2371   -3501.3601       41 
     569    -3501.237    -3501.362       41 
     570   -3501.2369   -3501.3639       41 
     571   -3501.2368   -3501.3659       41 
     572   -3501.2367   -3501.3678       41 
     573   -3501.2366   -3501.3698       41 
     574   -3501.2365   -3501.3718       41 
     575   -3501.2364   -3501.3739       41 
     576   -3501.2363   -3501.3759       41 
     577   -3501.2362    -3501.378       41 
     578   -3501.2361   -3501.3801       41 
     579   -3501.2359   -3501.3822       41 
     580   -3501.2358   -3501.3843       41 
     581   -3501.2357   -3501.3865       41 
     582   -3501.2356   -3501.3886       41 
     583   -3501.2355   -3501.3908       41 
     584   -3501.2354   -3501.3931       41 
     585   -3501.2352   -3501.3953       41 
     586   -3501.2351   -3501.3976       41 
     587    -3501.235   -3501.3998       41 
     588   -3501.2349   -3501.4021       41 
     589   -3501.2347   -3501.4045       41 
     590   -3501.2346   -3501.4068       41 
     591   -3501.2345   -3501.4092       41 
     592   -3501.2344   -3501.4116       41 
     593   -3501.2342    -3501.414       41 
     594   -3501.2341   -3501.4164       41 
     595    -3501.234   -3501.4189       41 
     596   -3501.2339   -3501.4214       41 
     597   -3501.2338   -3501.4239       41 
     598   -3501.2336   -3501.4264       41 
     599   -3501.2336   -3501.4289       41 
     600   -3501.2335   -3501.4315       41 
     601   -3501.2334   -3501.4341       41 
     602   -3501.2334   -3501.4367       41 
     603   -3501.2335   -3501.4394       41 
     604   -3501.2338   -3501.4421       41 
     605   -3501.2343   -3501.4447       41 
     606   -3501.2352   -3501.4474       41 
     607   -3501.2369   -3501.4501       41 
     608   -3501.2399   -3501.4528       41 
     609   -3501.2449   -3501.4555       41 
     610   -3501.2532   -3501.4581       41 
     611   -3501.2657   -3501.4606       41 
     612   -3501.2826    -3501.463       41 
     613   -3501.3014   -3501.4653       41 
     614   -3501.3185   -3501.4675       41 
     615   -3501.3312   -3501.4697       41 
     616   -3501.3393   -3501.4718       41 
     617    -3501.344    -3501.474       41 
     618   -3501.3466   -3501.4761       41 
     619   -3501.3479   -3501.4783       41 
     620   -3501.3487   -3501.4805       41 
     621    -3501.349   -3501.4827       41 
     622   -3501.3491   -3501.4849       41 
     623   -3501.3492   -3501.4872       41 
     624   -3501.3492   -3501.4895       41 
     625   -3501.3491   -3501.4918       41 
     626    -3501.349   -3501.4941       41 
     627   -3501.3489   -3501.4964       41 
     628   -3501.3488   -3501.4988       41 
     629   -3501.3487   -3501.5012       41 
     630   -3501.3486   -3501.5036       41 
     631   -3501.3484   -3501.5061       41 
     632   -3501.3483   -3501.5086       41 
     633   -3501.3482   -3501.5111       41 
     634    -3501.348   -3501.5136       41 
     635   -3501.3479   -3501.5162       41 
     636   -3501.3478   -3501.5187       41 
     637   -3501.3476   -3501.5213       41 
     638   -3501.3475    -3501.524       41 
     639   -3501.3473   -3501.5266       41 
     640   -3501.3472   -3501.5293       41 
     641   -3501.3471    -3501.532       41 
     642   -3501.3469   -3501.5348       41 
     643   -3501.3468   -3501.5376       41 
     644   -3501.3466   -3501.5404       41 
     645   -3501.3465   -3501.5432       41 
     646   -3501.3463    -3501.546       41 
     647   -3501.3462   -3501.5489       41 
     648    -3501.346   -3501.5518       41 
     649   -3501.3458   -3501.5548       41 
     650   -3501.3457   -3501.5577       41 
     651   -3501.3455   -3501.5607       41 
     652   -3501.3454   -3501.5638       41 
     653   -3501.3452   -3501.5668       41 
     654    -3501.345   -3501.5699       41 
     655   -3501.3449    -3501.573       41 
     656   -3501.3447   -3501.5762       41 
     657   -3501.3446   -3501.5794       41 
     658   -3501.3444   -3501.5826       41 
     659   -3501.3443   -3501.5858       41 
     660   -3501.3441   -3501.5891       41 
     661    -3501.344   -3501.5924       41 
     662   -3501.3439   -3501.5957       41 
     663   -3501.3438   -3501.5991       41 
     664   -3501.3438   -3501.6025       41 
     665   -3501.3439   -3501.6059       41 
     666   -3501.3441   -3501.6094       41 
     667   -3501.3445   -3501.6128       41 
     668   -3501.3452   -3501.6164       41 
     669   -3501.3464   -3501.6199       41 
     670   -3501.3485   -3501.6234       41 
     671   -3501.3519   -3501.6269       41 
     672   -3501.3575   -3501.6304       41 
     673   -3501.3661   -3501.6339       41 
     674   -3501.3789   -3501.6373       41 
     675   -3501.3959   -3501.6405       41 
     676    -3501.416   -3501.6437       41 
     677    -3501.436   -3501.6468       41 
     678   -3501.4529   -3501.6497       41 
     679   -3501.4652   -3501.6527       41 
     680   -3501.4733   -3501.6556       41 
     681   -3501.4782   -3501.6586       41 
     682   -3501.4811   -3501.6615       41 
     683   -3501.4827   -3501.6645       41 
     684   -3501.4837   -3501.6675       41 
     685   -3501.4842   -3501.6705       41 
     686   -3501.4845   -3501.6736       41 
     687   -3501.4845   -3501.6767       41 
     688   -3501.4846   -3501.6798       41 
     689   -3501.4845    -3501.683       41 
     690   -3501.4844   -3501.6862       41 
     691   -3501.4843   -3501.6894       41 
     692   -3501.4842   -3501.6926       41 
     693    -3501.484   -3501.6959       41 
     694   -3501.4839   -3501.6993       41 
     695   -3501.4837   -3501.7026       41 
     696   -3501.4835    -3501.706       41 
     697   -3501.4834   -3501.7095       41 
     698   -3501.4832    -3501.713       41 
     699    -3501.483   -3501.7165       41 
     700   -3501.4828     -3501.72       41 
     701   -3501.4826   -3501.7236       41 
     702   -3501.4824   -3501.7272       41 
     703   -3501.4822   -3501.7309       41 
     704   -3501.4821   -3501.7346       41 
     705   -3501.4819   -3501.7383       41 
     706   -3501.4817   -3501.7421       41 
     707   -3501.4815   -3501.7459       41 
     708   -3501.4813   -3501.7498       41 
     709    -3501.481   -3501.7537       41 
     710   -3501.4808   -3501.7576       41 
     711   -3501.4806   -3501.7616       41 
     712   -3501.4804   -3501.7656       41 
     713   -3501.4802   -3501.7697       41 
     714     -3501.48   -3501.7738       41 
     715   -3501.4798   -3501.7779       41 
     716   -3501.4796   -3501.7821       41 
     717   -3501.4794   -3501.7863       41 
     718   -3501.4792   -3501.7906       41 
     719    -3501.479   -3501.7949       41 
     720   -3501.4788   -3501.7993       41 
     721   -3501.4786   -3501.8037       41 
     722   -3501.4784   -3501.8081       41 
     723   -3501.4783   -3501.8126       41 
     724   -3501.4782   -3501.8171       41 
     725   -3501.4782   -3501.8217       41 
     726   -3501.4782   -3501.8263       41 
     727   -3501.4784    -3501.831       41 
     728   -3501.4788   -3501.8357       41 
     729   -3501.4795   -3501.8405       41 
     730   -3501.4807   -3501.8452       41 
     731   -3501.4826     -3501.85       41 
     732   -3501.4857   -3501.8549       41 
     733   -3501.4904   -3501.8597       41 
     734   -3501.4976   -3501.8645       41 
     735   -3501.5082   -3501.8692       41 
     736    -3501.523   -3501.8739       41 
     737   -3501.5421   -3501.8784       41 
     738   -3501.5643   -3501.8829       41 
     739    -3501.587   -3501.8872       41 
     740   -3501.6074   -3501.8914       41 
     741   -3501.6235   -3501.8956       41 
     742    -3501.635   -3501.8998       41 
     743   -3501.6427    -3501.904       41 
     744   -3501.6477   -3501.9082       41 
     745   -3501.6508   -3501.9124       41 
     746   -3501.6528   -3501.9166       41 
     747   -3501.6539   -3501.9209       41 
     748   -3501.6546   -3501.9253       41 
     749    -3501.655   -3501.9296       41 
     750   -3501.6552   -3501.9341       41 
     751   -3501.6552   -3501.9386       41 
     752   -3501.6552   -3501.9431       41 
     753   -3501.6551   -3501.9477       41 
     754    -3501.655   -3501.9523       41 
     755   -3501.6548    -3501.957       41 
     756   -3501.6546   -3501.9617       41 
     757   -3501.6544   -3501.9665       41 
     758   -3501.6542   -3501.9713       41 
     759    -3501.654   -3501.9762       41 
     760   -3501.6538   -3501.9811       41 
     761   -3501.6535   -3501.9861       41 
     762   -3501.6533   -3501.9912       41 
     763    -3501.653   -3501.9963       41 
     764   -3501.6528   -3502.0014       41 
     765   -3501.6525   -3502.0066       41 
     766   -3501.6522   -3502.0119       41 
     767    -3501.652   -3502.0172       41 
     768   -3501.6517   -3502.0226       41 
     769   -3501.6514   -3502.0281       41 
     770   -3501.6511   -3502.0336       41 
     771   -3501.6509   -3502.0392       41 
     772   -3501.6506   -3502.0448       41 
     773   -3501.6503   -3502.0505       41 
     774     -3501.65   -3502.0562       41 
     775   -3501.6497   -3502.0621       41 
     776   -3501.6495   -3502.0679       41 
     777   -3501.6492   -3502.0739       41 
     778   -3501.6489   -3502.0799       41 
     779   -3501.6487    -3502.086       41 
     780   -3501.6484   -3502.0921       41 
     781   -3501.6482   -3502.0983       41 
     782    -3501.648   -3502.1046       41 
     783   -3501.6478   -3502.1109       41 
     784   -3501.6477   -3502.1173       41 
     785   -3501.6476   -3502.1238       41 
     786   -3501.6477   -3502.1303       41 
     787   -3501.6478   -3502.1369       41 
     788   -3501.6482   -3502.1436       41 
     789   -3501.6488   -3502.1503       41 
     790   -3501.6499   -3502.1571       41 
     791   -3501.6514   -3502.1639       41 
     792   -3501.6539   -3502.1708       41 
     793   -3501.6574   -3502.1778       41 
     794   -3501.6626   -3502.1847       41 
     795   -3501.6699   -3502.1917       41 
     796   -3501.6803   -3502.1986       41 
     797   -3501.6941   -3502.2055       41 
     798   -3501.7121   -3502.2123       41 
     799   -3501.7337    -3502.219       41 
     800   -3501.7577   -3502.2256       41 
     801   -3501.7821   -3502.2321       41 
     802   -3501.8046   -3502.2386       41 
     803   -3501.8236    -3502.245       41 
     804   -3501.8386   -3502.2513       41 
     805   -3501.8496   -3502.2577       41 
     806   -3501.8575   -3502.2641       41 
     807    -3501.863   -3502.2706       41 
     808   -3501.8667   -3502.2771       41 
     809   -3501.8692   -3502.2836       41 
     810   -3501.8709   -3502.2902       41 
     811    -3501.872   -3502.2969       41 
     812   -3501.8728   -3502.3037       41 
     813   -3501.8732   -3502.3105       41 
     814   -3501.8734   -3502.3174       41 
     815   -3501.8735   -3502.3244       41 
     816   -3501.8735   -3502.3315       41 
     817   -3501.8734   -3502.3386       41 
     818   -3501.8733   -3502.3459       41 
     819   -3501.8731   -3502.3532       41 
     820   -3501.8729   -3502.3606       41 
     821   -3501.8726   -3502.3681       41 
     822   -3501.8723   -3502.3757       41 
     823    -3501.872   -3502.3833       41 
     824   -3501.8717   -3502.3911       41 
     825   -3501.8713   -3502.3989       41 
     826    -3501.871   -3502.4069       41 
     827   -3501.8706   -3502.4149       41 
     828   -3501.8703    -3502.423       41 
     829   -3501.8699   -3502.4313       41 
     830   -3501.8695   -3502.4396       41 
     831   -3501.8692    -3502.448       41 
     832   -3501.8688   -3502.4565       41 
     833   -3501.8684   -3502.4651       41 
     834    -3501.868   -3502.4738       41 
     835   -3501.8676   -3502.4826       41 
     836   -3501.8672   -3502.4916       41 
     837   -3501.8668   -3502.5006       41 
     838   -3501.8664   -3502.5097       41 
     839   -3501.8661   -3502.5189       41 
     840   -3501.8657   -3502.5283       41 
     841   -3501.8654   -3502.5377       41 
     842   -3501.8651   -3502.5473       41 
     843   -3501.8648    -3502.557       41 
     844   -3501.8645   -3502.5668       41 
     845   -3501.8644   -3502.5767       41 
     846   -3501.8642   -3502.5867       41 
     847   -3501.8642   -3502.5968       41 
     848   -3501.8644    -3502.607       41 
     849   -3501.8646   -3502.6174       41 
     850   -3501.8652   -3502.6279       41 
     851    -3501.866   -3502.6384       41 
     852   -3501.8672   -3502.6491       41 
     853    -3501.869   -3502.6599       41 
     854   -3501.8715   -3502.6708       41 
     855   -3501.8749   -3502.6818       41 
     856   -3501.8797   -3502.6929       41 
     857    -3501.886   -3502.7041       41 
     858   -3501.8944   -3502.7153       41 
     859   -3501.9053   -3502.7265       41 
     860   -3501.9191   -3502.7377       41 
     861   -3501.9362    -3502.749       41 
     862   -3501.9566   -3502.7602       41 
     863   -3501.9796   -3502.7714       41 
     864   -3502.0046   -3502.7825       41 
     865     -3502.03   -3502.7936       41 
     866   -3502.0545   -3502.8046       41 
     867   -3502.0768   -3502.8156       41 
     868   -3502.0962   -3502.8266       41 
     869   -3502.1123   -3502.8377       41 
     870   -3502.1252   -3502.8488       41 
     871   -3502.1353   -3502.8599       41 
     872   -3502.1431   -3502.8712       41 
     873   -3502.1489   -3502.8826       41 
     874   -3502.1533    -3502.894       41 
     875   -3502.1566   -3502.9056       41 
     876    -3502.159   -3502.9174       41 
     877   -3502.1608   -3502.9292       41 
     878    -3502.162   -3502.9413       41 
     879   -3502.1629   -3502.9534       41 
     880   -3502.1635   -3502.9657       41 
     881   -3502.1638   -3502.9782       41 
     882    -3502.164   -3502.9908       41 
     883    -3502.164   -3503.0035       41 
     884   -3502.1639   -3503.0165       41 
     885   -3502.1637   -3503.0295       41 
     886   -3502.1635   -3503.0428       41 
     887   -3502.1632   -3503.0562       41 
     888   -3502.1628   -3503.0698       41 
     889   -3502.1624   -3503.0836       41 
     890   -3502.1619   -3503.0975       41 
     891   -3502.1614   -3503.1116       41 
     892   -3502.1609    -3503.126       41 
     893   -3502.1603   -3503.1404       41 
     894   -3502.1598   -3503.1551       41 
     895   -3502.1592     -3503.17       41 
     896   -3502.1586    -3503.185       41 
     897    -3502.158   -3503.2003       41 
     898   -3502.1574   -3503.2158       41 
     899   -3502.1567   -3503.2314       41 
     900   -3502.1561   -3503.2473       41 
     901   -3502.1555   -3503.2633       41 
     902   -3502.1548   -3503.2796       41 
     903   -3502.1542   -3503.2961       41 
     904   -3502.1535   -3503.3128       41 
     905   -3502.1529   -3503.3297       41 
     906   -3502.1523   -3503.3468       41 
     907   -3502.1517   -3503.3642       41 
     908   -3502.1511   -3503.3818       41 
     909   -3502.1506   -3503.3996       41 
     910   -3502.1501   -3503.4177       41 
     911   -3502.1496    -3503.436       41 
     912   -3502.1492   -3503.4545       41 
     913   -3502.1489   -3503.4732       41 
     914   -3502.1486   -3503.4923       41 
     915   -3502.1485   -3503.5115       41 
     916   -3502.1485    -3503.531       41 
     917   -3502.1486   -3503.5508       41 
     918    -3502.149   -3503.5708       41 
     919   -3502.1496   -3503.5911       41 
     920   -3502.1504   -3503.6116       41 
     921   -3502.1517   -3503.6324       41 
     922   -3502.1538   -3503.6539       41 
     923   -3501.9666   -3503.6836       41 
     924   -3502.0114    -3503.715       41 
     925   -3502.0117   -3503.7483       41 
     926   -3502.0001    -3503.784       41 
     927   -3501.9802   -3503.8224       41 
     928   -3501.9527   -3503.8638       41 
     929   -3501.9181   -3503.9089       41 
     930   -3501.8764    -3503.958       41 
     931   -3501.8274   -3504.0119       41 
     932   -3501.7709   -3504.0713       41 
     933   -3501.7068    -3504.137       41 
     934   -3501.6348   -3504.2101       41 
     935   -3501.5547   -3504.2916       41 
     936   -3501.4661   -3504.3829       41 
     937   -3501.3688   -3504.4855       41 
     938   -3501.2625   -3504.6011       41 
     939   -3501.1464   -3504.7317       41 
     940   -3501.0199   -3504.8796       41 
     941   -3500.8822   -3505.0475       41 
     942    -3500.732   -3505.2383       41 
     943   -3500.5678   -3505.4554       41 
     944   -3500.3879   -3505.7028       41 
     945   -3500.1901   -3505.9851       41 
     946   -3499.9717   -3506.3073       41 
     947   -3499.7296   -3506.6755       41 
     948   -3499.4601   -3507.0966       41 
     949   -3499.1586    -3507.579       41 
     950   -3498.8202   -3508.1325       41 
     951   -3498.4387   -3508.7689       41 
     952    -3498.007   -3509.5029       41 
     953   -3497.5172   -3510.3526       41 
     954   -3496.9601   -3511.3408       41 
     955   -3496.3256   -3512.4954       41 
     956   -3495.6029   -3513.8503       41 
     957   -3494.7807    -3515.444       41 
     958   -3493.8484   -3517.3163       41 
     959   -3492.7989   -3519.4997       41 
     960   -3491.6357   -3522.0046       41 
     961   -3490.3897   -3524.8004       41 
     962   -3489.1481   -3527.7991       41 
     963   -3488.0931   -3530.8573       41 
     964   -3487.5249   -3533.8059       41 
     965   -3487.8202   -3536.4992       41 
     966   -3489.2808   -3538.8525       41 
     967     -3491.89   -3540.8486       41 
     968   -3495.1096    -3542.517       41 
     969   -3497.9454   -3543.9083       41 
     970   -3499.3545   -3545.0769       41 
     971   -3498.8257   -3546.0716       41 
     972   -3496.6227   -3546.9326       41 
     973   -3493.4031   -3547.6921       41 
     974   -3489.7296   -3548.3753       41 
     975   -3485.9941   -3549.0014       41 
     976   -3482.5454    -3549.584       41 
     977   -3479.6696   -3550.1319       41 
     978   -3477.5181   -3550.6501       41 
     979   -3476.1256   -3551.1412       41 
     980     -3475.47   -3551.6058       41 
     981   -3475.5029   -3552.0435       41 
     982   -3476.1527   -3552.4535       41 
     983   -3477.3569   -3552.8352       41 
     984    -3479.096   -3553.1879       41 
     985   -3481.3637    -3553.512       41 
     986   -3484.2907   -3553.8082       41 
     987   -3487.9635   -3554.0782       41 
     988   -3492.5185   -3554.3248       41 
     989   -3497.7452   -3554.5517       41 
     990   -3503.3953   -3554.7631       41 
     991   -3508.4082    -3554.963       41 
     992   -3513.1715   -3555.1526       41 
     993   -3514.2569   -3555.2997       41 
     994   -3541.5077   -3555.3687       41 
     995    -3554.465   -3555.3937       41 
     996   -3554.7346   -3555.4175       41 
     997   -3554.7864   -3555.4416       41 
     998    -3554.794   -3555.4661       41 
     999   -3554.7951   -3555.4911       41 
    1000   -3554.7953   -3555.5165       41 
Loop time of 10.0953 on 1 procs for 1000 steps with 41 atoms

98.8% CPU use with 1 MPI tasks x no OpenMP threads

Minimization stats:
  Stopping criterion = max iterations
  Energy initial, next-to-last, final = 
        -3449.62044446     -3555.49105919     -3555.51651024
  Force two-norm initial, final = 117.859 4.48547
  Force max component initial, final = 36.6296 4.28374
  Final line search alpha, max atom move = 0 0
  Iterations, force evaluations = 1000 1000

MPI task timing breakdown:
Section |  min time  |  avg time  |  max time  |%varavg| %total
---------------------------------------------------------------
Pair    | 9.6042     | 9.6042     | 9.6042     |   0.0 | 95.13
Neigh   | 0.0097697  | 0.0097697  | 0.0097697  |   0.0 |  0.10
Comm    | 0.012367   | 0.012367   | 0.012367   |   0.0 |  0.12
Output  | 0.13919    | 0.13919    | 0.13919    |   0.0 |  1.38
Modify  | 0.32039    | 0.32039    | 0.32039    |   0.0 |  3.17
Other   |            | 0.009431   |            |       |  0.09

Nlocal:    41 ave 41 max 41 min
Histogram: 1 0 0 0 0 0 0 0 0 0
Nghost:    1339 ave 1339 max 1339 min
Histogram: 1 0 0 0 0 0 0 0 0 0
Neighs:    11540 ave 11540 max 11540 min
Histogram: 1 0 0 0 0 0 0 0 0 0

Total # of neighbors = 11540
Ave neighs/atom = 281.463
Neighbor list builds = 4
Dangerous builds not checked

Please see the log.cite file for references relevant to this simulation

Total wall time: 0:00:10
