 # LAMMPS data file written by Ovito Pyth
 
          41  atoms
           3  atom types
 
      0.000000000000       7.495103000000  xlo xhi
      0.000000000000       7.495178000000  ylo yhi
      0.000000000000      20.111915000000  zlo zhi
 
Masses
 
            1   63.54600000             # Cu
            2   58.69340000             # Ni
            3   15.99900000             # O
 
Atoms # charge
 
         1    1   0.000000        0.783388541302       2.666150761081       1.079079728231
         2    1   0.000000        4.496691209087       2.661085858599       1.077941094050
         3    1   0.000000        6.383354907741       0.786045647060       1.074951020059
         4    1   0.000000        0.763445914076       6.406944687849       1.075238506620
         5    1   0.000000        2.638205216746       4.520438657232       1.077697546958
         6    1   0.000000        4.513739932461       6.410295015316       1.072604711008
         7    1   0.000000        6.386863008215       4.537615121090       1.072225343499
         8    1   0.000000        0.763060083449       0.786562306133       2.750744664854
         9    1   0.000000        2.641195162585       2.664719564723       2.769799509636
        10    1   0.000000        4.516959499048       0.783264868039       2.756970380030
        11    1   0.000000        6.387591211734       2.663043322842       2.738239784104
        12    1   0.000000        2.639810036728       6.410595782083       2.739082518764
        13    1   0.000000        4.514423355128       4.537652415912       2.748313738918
        14    1   0.000000        6.385302559336       6.408361485124       2.760965395875
        15    1   0.000000        0.754908936366       2.664645042037       4.489980234982
        16    1   0.000000        2.640907098397       0.778061040148       4.489640012599
        17    1   0.000000        4.529321105240       2.670371385766       4.494688595452
        18    1   0.000000        6.386595171403       0.798759676224       4.499356204471
        19    1   0.000000        0.776068885620       6.409299786744       4.499597724741
        20    1   0.000000        2.647132995499       4.552133528744       4.495544523818
        21    1   0.000000        4.498991493961       6.399174618665       4.504982128993
        22    1   0.000000        6.376494128749       4.522651217596       4.504581216693
        23    1   0.000000        0.792222408363       0.814669766785       6.221511932377
        24    1   0.000000        4.487841848796       0.808176151994       6.221980549311
        25    1   0.000000        6.380293154371       2.668884927279       6.278223672755
        26    1   0.000000        0.785787879651       4.511855619300       6.223880326166
        27    1   0.000000        2.645475337978       6.402628245086       6.280120716575
        28    1   0.000000        0.787426936133       2.665367629324       7.947335901702
        29    1   0.000000        2.643549053076       0.809259554252       7.947888918375
        30    1   0.000000        0.755477339598       6.407294890452       7.871658736967
        31    1   0.000000        2.656322424910       4.510379058850       7.931881394768
        32    1   0.000000        4.520364580928       6.388371586753       7.864695948643
        33    1   0.000000        6.364987689987       4.541244340800       7.865069723197
        34    1   0.000000        2.643066250019       0.806182859260       1.079542945010
        35    1   0.000000        0.760286884181       4.539903394187       2.756378112561
        36    1   0.000000        6.378585515891       6.401320113476       6.206669330592
        37    1   0.000000        6.383223874715       0.780427296403       7.869656148471
        38    1   0.000000        4.488144300407       2.677053503702       7.930698424441
        39    2   0.000000        4.500489705787       4.522921479916       6.204013890812
        40    2   0.000000        2.651488741204       2.674370140101       6.105032700458
        41    3   0.000000        2.636694621135       2.658479653074       8.745480042466
