 # LAMMPS data file written by Ovito Pyth
 
          41  atoms
           3  atom types
 
      0.000000000000       7.495103000000  xlo xhi
      0.000000000000       7.495178000000  ylo yhi
      0.000000000000      20.111915000000  zlo zhi
 
Masses
 
            1   63.54600000             # Cu
            2   58.69340000             # Ni
            3   15.99900000             # O
 
Atoms # charge
 
         1    1   0.000000        0.786530138763       2.662726080495       1.066935333923
         2    1   0.000000        4.495376866485       2.662726459115       1.071932115963
         3    1   0.000000        6.382625660270       0.788981823368       1.069100496551
         4    1   0.000000        0.762669972367       6.409893432008       1.066046778207
         5    1   0.000000        2.641946243015       4.516652174627       1.067548367665
         6    1   0.000000        4.508775561560       6.409986257463       1.065674185271
         7    1   0.000000        6.382659208345       4.536164887201       1.068934727978
         8    1   0.000000        0.760585513004       0.783329940670       2.740553419845
         9    1   0.000000        2.645197093607       2.662097120786       2.759625664427
        10    1   0.000000        4.513091707040       0.780963196036       2.748929132541
        11    1   0.000000        6.390998916680       2.662486119777       2.725792870966
        12    1   0.000000        2.637997554244       6.410363783877       2.725415413689
        13    1   0.000000        4.513540169606       4.543901515156       2.749423135425
        14    1   0.000000        6.380473749746       6.409920817929       2.749523916610
        15    1   0.000000        0.747712100139       2.661732288513       4.477759434413
        16    1   0.000000        2.631328279955       0.760686698173       4.484739402595
        17    1   0.000000        4.543193785335       2.661850141256       4.479199379035
        18    1   0.000000        6.387815816380       0.791900585941       4.494090910009
        19    1   0.000000        0.768761185503       6.410070360707       4.492840950367
        20    1   0.000000        2.631330599031       4.563848019268       4.483919020508
        21    1   0.000000        4.500608384508       6.410092528247       4.505840991019
        22    1   0.000000        6.387744775769       4.532301403411       4.494686049790
        23    1   0.000000        0.768157242617       0.798153572535       6.241590166484
        24    1   0.000000        4.503982164206       0.808124980754       6.229145236743
        25    1   0.000000        6.396532375825       2.661457246617       6.267274480905
        26    1   0.000000        0.768527512148       4.525704969283       6.240487839707
        27    1   0.000000        2.631390724002       6.409721378847       6.283898968221
        28    1   0.000000        4.503427649783       4.515967467901       6.228156672384
        29    1   0.000000        2.642020608090       0.808524415216       1.066373724070
        30    1   0.000000        0.760145069404       4.541396604154       2.741154526255
        31    1   0.000000        2.639684163554       2.662156126973       6.106630555581
        32    1   0.000000        6.382090346414       6.409906664188       6.238893770445
        33    1   0.000000        0.793485238910       2.662322146066       7.962376020979
        34    1   0.000000        2.644602193182       0.784655635101       7.958354236936
        35    1   0.000000        6.362068699558       0.819640947577       7.906397907380
        36    1   0.000000        6.362026042914       4.503984902134       7.904763230327
        37    1   0.000000        4.519362766087       6.409121406868       7.894026396335
        38    1   0.000000        2.644414551567       4.539571068665       7.958060303182
        39    1   0.000000        0.750409396914       6.408963102887       7.904854558132
        40    2   0.000000        4.462235825274       2.662386283171       7.900103638710
        41    3   0.000000        2.750653148201       2.662227447040       8.702890070428
