# Cu_111-54/

80 atoms
1 atom types

 
0.0 10.224764 xlo xhi
0.0 8.854905 ylo yhi
0.0 18.784091 zlo zhi

  0.000000    0.000000    0.000000    xy xz yz

Atoms  # charge

1 1 0.0 0.0 -0.026337 -0.011834
2 1 0.0 0.0 2.932514 2.080662
3 1 0.0 1.278095 0.718608 2.080703
4 1 0.0 1.278096 3.689545 4.174242
5 1 0.0 1.278095 2.187241 -0.011725
6 1 0.0 0.0 1.475818 4.174241
7 1 0.0 2.556191 -0.026337 -0.011834
8 1 0.0 2.556191 2.932514 2.080662
9 1 0.0 3.834287 0.718608 2.080703
10 1 0.0 3.834287 3.689545 4.174242
11 1 0.0 3.834287 2.187241 -0.011725
12 1 0.0 2.556191 1.475818 4.174241
13 1 0.0 5.112382 -0.026337 -0.011834
14 1 0.0 5.112382 2.932514 2.080662
15 1 0.0 6.390477 0.718608 2.080703
16 1 0.0 6.390478 3.689545 4.174242
17 1 0.0 6.390477 2.187241 -0.011725
18 1 0.0 5.112382 1.475818 4.174241
19 1 0.0 7.668573 -0.026337 -0.011834
20 1 0.0 7.668573 2.932514 2.080662
21 1 0.0 8.946669 0.718608 2.080703
22 1 0.0 8.946669 3.689545 4.174242
23 1 0.0 8.946669 2.187241 -0.011725
24 1 0.0 7.668573 1.475818 4.174241
25 1 0.0 0.0 4.401115 -0.011835
26 1 0.0 0.0 7.359966 2.080663
27 1 0.0 1.278095 5.146059 2.080703
28 1 0.0 1.278096 8.116997 4.174242
29 1 0.0 1.278095 6.614693 -0.011725
30 1 0.0 0.0 5.90327 4.174242
31 1 0.0 2.556191 4.401115 -0.011835
32 1 0.0 2.556191 7.359966 2.080663
33 1 0.0 3.834287 5.146059 2.080703
34 1 0.0 3.834287 8.116997 4.174242
35 1 0.0 3.834287 6.614693 -0.011725
36 1 0.0 2.556191 5.90327 4.174242
37 1 0.0 5.112382 4.401115 -0.011835
38 1 0.0 5.112382 7.359966 2.080663
39 1 0.0 6.390477 5.146059 2.080703
40 1 0.0 6.390478 8.116997 4.174242
41 1 0.0 6.390477 6.614693 -0.011725
42 1 0.0 5.112382 5.90327 4.174242
43 1 0.0 7.668573 4.401115 -0.011835
44 1 0.0 7.668573 7.359966 2.080663
45 1 0.0 8.946669 5.146059 2.080703
46 1 0.0 8.946669 8.116997 4.174242
47 1 0.0 8.946669 6.614693 -0.011725
48 1 0.0 7.668573 5.90327 4.174242
49 1 0.0 0.0 0.01912 6.267821
50 1 0.0 0.0 2.977973 8.360322
51 1 0.0 1.278096 0.764394 8.36021
52 1 0.0 1.278096 2.233029 6.267781
53 1 0.0 2.556191 0.01912 6.267821
54 1 0.0 2.556191 2.977973 8.360322
55 1 0.0 3.834287 0.764394 8.36021
56 1 0.0 3.834287 2.233029 6.267781
57 1 0.0 5.112382 0.01912 6.267821
58 1 0.0 5.112382 2.977973 8.360322
59 1 0.0 6.390478 0.764394 8.36021
60 1 0.0 6.390478 2.233029 6.267781
61 1 0.0 7.668573 0.01912 6.267821
62 1 0.0 7.668573 2.977973 8.360322
63 1 0.0 8.946669 0.764394 8.36021
64 1 0.0 8.946669 2.233029 6.267781
65 1 0.0 0.0 4.446574 6.267821
66 1 0.0 0.0 7.405425 8.360322
67 1 0.0 1.278096 5.191847 8.36021
68 1 0.0 1.278096 6.66048 6.267782
69 1 0.0 2.556191 4.446574 6.267821
70 1 0.0 2.556191 7.405425 8.360322
71 1 0.0 3.834287 5.191847 8.36021
72 1 0.0 3.834287 6.66048 6.267782
73 1 0.0 5.112382 4.446574 6.267821
74 1 0.0 5.112382 7.405425 8.360322
75 1 0.0 6.390478 5.191847 8.36021
76 1 0.0 6.390478 6.66048 6.267782
77 1 0.0 7.668573 4.446574 6.267821
78 1 0.0 7.668573 7.405425 8.360322
79 1 0.0 8.946669 5.191847 8.36021
80 1 0.0 8.946669 6.66048 6.267782
