 # LAMMPS data file written by Ovito Pyth
 
          41  atoms
           3  atom types
 
      0.000000000000       7.495103000000  xlo xhi
      0.000000000000       7.495178000000  ylo yhi
      0.000000000000      20.111915000000  zlo zhi
 
Masses
 
            1   63.54600000             # Cu
            2   58.69340000             # Ni
            3   15.99900000             # O
 
Atoms # charge
 
         1    1   0.000000        0.781394134849       2.662824224189       1.068033186374
         2    1   0.000000        4.497363636086       2.662751329817       1.068860258212
         3    1   0.000000        6.386743037963       0.792565541968       1.070600195021
         4    1   0.000000        0.768848712704       6.409690710999       1.070368219625
         5    1   0.000000        2.639368770908       4.520153403993       1.069131306245
         6    1   0.000000        4.509529070512       6.409840263016       1.070460130410
         7    1   0.000000        6.386763601086       4.532436306692       1.070768598432
         8    1   0.000000        0.764014375305       0.786850788119       2.746141965833
         9    1   0.000000        2.639261587920       2.661967226792       2.759182110497
        10    1   0.000000        4.514676984047       0.786720934817       2.746479606594
        11    1   0.000000        6.386887038881       2.662316290082       2.733989742077
        12    1   0.000000        2.639198912399       6.410406603764       2.733292386081
        13    1   0.000000        4.515110258064       4.538022110625       2.747249848303
        14    1   0.000000        6.386860427461       6.409942596479       2.751955804386
        15    1   0.000000        0.753659958048       2.661637458561       4.489502596153
        16    1   0.000000        2.639608843754       0.776993396002       4.489708127716
        17    1   0.000000        4.524971126473       2.661759908249       4.489885351785
        18    1   0.000000        6.386850357177       0.799847387069       4.493582315068
        19    1   0.000000        0.777299414896       6.410156229937       4.493336085706
        20    1   0.000000        2.639595773095       4.547456235750       4.488961741658
        21    1   0.000000        4.501358225443       6.410165456480       4.493706171447
        22    1   0.000000        6.386807041398       4.524323443619       4.494221142540
        23    1   0.000000        0.786937602527       0.809830881124       6.224662142521
        24    1   0.000000        4.491841403276       0.809688726825       6.225607557943
        25    1   0.000000        6.386636397932       2.661320880923       6.283373858657
        26    1   0.000000        0.787324170207       4.514110079178       6.223515303978
        27    1   0.000000        2.639312657360       6.409896589141       6.281964742624
        28    1   0.000000        4.491300529607       4.514492672163       6.224361093289
        29    1   0.000000        0.778678813543       2.662359931912       7.952166662926
        30    1   0.000000        2.638994701746       0.801654190570       7.952230021977
        31    1   0.000000        0.761136424734       6.409081354139       7.885303445505
        32    1   0.000000        2.638823105109       4.522873902611       7.951695030308
        33    1   0.000000        4.517399405230       6.409105117480       7.885726401371
        34    1   0.000000        6.387153160322       4.540922603976       7.884902220754
        35    1   0.000000        2.639501918625       0.804974294008       1.067582493986
        36    1   0.000000        0.763557567132       4.537754968545       2.747101429368
        37    1   0.000000        6.386886784947       6.410026432251       6.215551143849
        38    1   0.000000        6.387199345127       0.782623007356       7.886967745970
        39    1   0.000000        4.499249267383       2.662573578094       7.952599093741
        40    2   0.000000        2.639247607896       2.662134768235       6.111182291584
        41    3   0.000000        2.638826848827       2.662410174450       8.728034429486
