 # LAMMPS data file written by Ovito Pyth
 
          41  atoms
           3  atom types
 
      0.000000000000       7.495103000000  xlo xhi
      0.000000000000       7.495178000000  ylo yhi
      0.000000000000      20.111915000000  zlo zhi
 
Masses
 
            1   63.54600000             # Cu
            2   58.69340000             # Ni
            3   15.99900000             # O
 
Atoms # charge
 
         1    1   0.000000        0.777156862424       2.666393152745       1.086279990083
         2    1   0.000000        4.501489142585       2.662177613647       1.086333896903
         3    1   0.000000        6.383177875946       0.785464696633       1.082166981374
         4    1   0.000000        0.760197650486       6.406969362876       1.083666261419
         5    1   0.000000        2.639199594529       4.523223727507       1.088536923834
         6    1   0.000000        4.517366499633       6.410012462579       1.080043884820
         7    1   0.000000        6.387094165270       4.539554500369       1.081911190711
         8    1   0.000000        0.764889535547       0.788868796539       2.760639632820
         9    1   0.000000        2.639292061380       2.663866136882       2.774699449368
        10    1   0.000000        4.515261752545       0.784175777925       2.767114369083
        11    1   0.000000        6.386717069674       2.663260902387       2.744067304319
        12    1   0.000000        2.640969322023       6.410542779241       2.749058926401
        13    1   0.000000        4.513770603844       4.536429433770       2.760441942186
        14    1   0.000000        6.385080046222       6.410702968684       2.767526429504
        15    1   0.000000        0.745659098575       2.664909360319       4.502281661106
        16    1   0.000000        2.641554624172       0.780882908229       4.500109527519
        17    1   0.000000        4.533168330405       2.668298024027       4.506518862127
        18    1   0.000000        6.385764952885       0.808089069054       4.510721315881
        19    1   0.000000        0.772371607113       6.410300323255       4.500287459392
        20    1   0.000000        2.649625510014       4.546691765867       4.506404117803
        21    1   0.000000        4.506864515599       6.397539833687       4.509926769109
        22    1   0.000000        6.378540692532       4.517456069852       4.514119032594
        23    1   0.000000        0.775942435324       0.816755040748       6.215436939953
        24    1   0.000000        4.503882409044       0.811207821135       6.217143064154
        25    1   0.000000        0.773100090263       4.509821698714       6.214981604681
        26    1   0.000000        2.646303076053       6.403630514717       6.269424424465
        27    1   0.000000        0.763604755331       2.666592474539       7.917915775686
        28    1   0.000000        2.641287569110       0.792600851900       7.931292417932
        29    1   0.000000        0.753122916215       6.406511013542       7.868928635512
        30    1   0.000000        2.656828178078       4.524016144341       7.912338638616
        31    1   0.000000        4.526231860718       6.387141983899       7.859399807908
        32    1   0.000000        6.369957605431       4.531954324657       7.854056374813
        33    1   0.000000        2.642747634792       0.803349457696       1.089241451661
        34    1   0.000000        0.764705688487       4.537972822990       2.767367484811
        35    1   0.000000        6.381331621148       6.403977383010       6.212163185415
        36    1   0.000000        6.383079783605       0.795033977252       7.860236998995
        37    1   0.000000        4.505710752807       2.675198950270       7.906016086136
        38    2   0.000000        6.377369198435       2.671019981968       6.268313398532
        39    2   0.000000        4.516578201852       4.515230695591       6.197795888299
        40    2   0.000000        2.648413650156       2.671492993241       6.117029485014
        41    3   0.000000        2.630770059748       2.657344203715       8.682006409060
