ITEM: TIMESTEP
0
ITEM: NUMBER OF ATOMS
41
ITEM: BOX BOUNDS pp pp pp
0.0000000000000000e+00 7.4951030000000003e+00
0.0000000000000000e+00 7.4951780000000001e+00
0.0000000000000000e+00 2.0111915000000000e+01
ITEM: ATOMS id x y z fx fy fz 
1 0.777157 2.66639 1.08628 -1.51241 -0.435977 -4.9847 
2 4.50149 2.66218 1.08633 1.50712 -0.25365 -5.16069 
3 6.38318 0.785465 1.08217 0.563776 0.303556 -4.72333 
4 0.760198 6.40697 1.08367 0.845131 0.524559 -4.20686 
5 2.6392 4.52322 1.08854 -0.165645 2.05973 -5.27858 
6 4.51737 6.41001 1.08004 -0.676634 -0.0233938 -4.44269 
7 6.38709 4.53955 1.08191 0.0864179 -0.162387 -4.89258 
8 0.76489 0.788869 2.76064 -0.554912 -0.771978 11.3826 
9 2.63929 2.66387 2.7747 -0.184489 -0.428233 12.0734 
10 4.51526 0.784176 2.76711 0.20314 -0.199846 10.3924 
11 6.38672 2.66326 2.74407 0.298791 -0.51301 10.2336 
12 2.64097 6.41054 2.74906 -0.395353 0.180704 12.1012 
13 4.51377 4.53643 2.76044 0.555222 0.966774 9.08778 
14 6.38508 6.4107 2.76753 0.437678 0.0760291 12.8348 
15 0.745659 2.66491 4.50228 1.3329 -1.26459 13.1969 
16 2.64155 0.780883 4.50011 -1.12011 7.95379 4.53402 
17 4.53317 2.6683 4.50652 -1.37635 11.6174 25.8015 
18 6.38576 0.808089 4.51072 1.07936 6.58757 5.81895 
19 0.772372 6.4103 4.50029 -0.0803142 0.908473 -0.337681 
20 2.64963 4.54669 4.5064 10.1823 -9.34683 15.1692 
21 4.50686 6.39754 4.50993 0.125331 -8.46284 7.07596 
22 6.37854 4.51746 4.51412 -10.0114 -7.40052 15.7098 
23 0.775942 0.816755 6.21544 1.4189 11.0541 -8.53907 
24 4.50388 0.811208 6.21714 -1.76309 11.5569 -9.78668 
25 0.7731 4.50982 6.21498 1.62367 -11.1209 -9.58298 
26 2.6463 6.40363 6.26942 5.23449 -5.82735 -22.0188 
27 0.763605 2.66659 7.91792 23.464 -2.14167 -11.5104 
28 2.64129 0.792601 7.93129 -1.91458 32.9221 -3.48638 
29 0.753123 6.40651 7.86893 1.53075 1.53212 8.36888 
30 2.65683 4.52402 7.91234 11.6959 -35.3816 -13.292 
31 4.52623 6.38714 7.8594 -1.3934 -11.2427 -0.197535 
32 6.36996 4.53195 7.85406 -12.567 -14.1883 -10.9996 
33 2.64275 0.803349 1.08924 -0.431774 -2.13929 -4.94995 
34 0.764706 4.53797 2.76737 -0.341364 0.692585 10.3395 
35 6.38133 6.40398 6.21216 -5.20034 -5.50808 -16.9433 
36 6.38308 0.795034 7.86024 1.66704 12.8877 -0.335439 
37 4.50571 2.6752 7.90602 -24.8363 13.2209 -23.4874 
38 6.37737 2.67102 6.26831 14.0764 -14.1036 -4.40286 
39 4.51658 4.51523 6.1978 -1.35814 28.2523 4.05064 
40 2.64841 2.67149 6.11703 -13.8028 -13.7399 20.8284 
41 2.63077 2.65734 8.68201 1.75814 1.35947 -35.4398 
ITEM: TIMESTEP
1
ITEM: NUMBER OF ATOMS
41
ITEM: BOX BOUNDS pp pp pp
0.0000000000000000e+00 7.4951030000000003e+00
0.0000000000000000e+00 7.4951780000000001e+00
0.0000000000000000e+00 2.0111915000000000e+01
ITEM: ATOMS id x y z fx fy fz 
1 0.777157 2.66639 1.08628 -1.51242 -0.435975 -4.9847 
2 4.50149 2.66218 1.08633 1.50712 -0.253649 -5.16069 
3 6.38318 0.785465 1.08217 0.563776 0.303557 -4.72333 
4 0.760198 6.40697 1.08367 0.845131 0.524559 -4.20686 
5 2.6392 4.52322 1.08854 -0.165645 2.05973 -5.27857 
6 4.51737 6.41001 1.08004 -0.676634 -0.0233945 -4.44269 
7 6.38709 4.53955 1.08191 0.0864167 -0.162388 -4.89258 
8 0.76489 0.788869 2.76064 -0.55491 -0.771982 11.3825 
9 2.63929 2.66387 2.7747 -0.184486 -0.428232 12.0734 
10 4.51526 0.784176 2.76711 0.203137 -0.19985 10.3924 
11 6.38672 2.66326 2.74407 0.298791 -0.513011 10.2336 
12 2.64097 6.41054 2.74906 -0.395354 0.180705 12.1012 
13 4.51377 4.53643 2.76044 0.555219 0.966776 9.08779 
14 6.38508 6.4107 2.76753 0.437684 0.076035 12.8348 
15 0.745659 2.66491 4.50228 1.33291 -1.26459 13.1969 
16 2.64155 0.780883 4.50011 -1.12011 7.95382 4.53404 
17 4.53317 2.6683 4.50652 -1.37637 11.6175 25.8015 
18 6.38576 0.808089 4.51072 1.07936 6.58754 5.81892 
19 0.772372 6.4103 4.50029 -0.0803135 0.908469 -0.337681 
20 2.64963 4.54669 4.5064 10.1824 -9.34686 15.1692 
21 4.50686 6.39754 4.50993 0.125335 -8.46282 7.07594 
22 6.37854 4.51746 4.51412 -10.0114 -7.40049 15.7097 
23 0.775942 0.816755 6.21544 1.41891 11.054 -8.53905 
24 4.50388 0.811208 6.21714 -1.7631 11.5569 -9.78667 
25 0.7731 4.50982 6.21498 1.62367 -11.1209 -9.58297 
26 2.6463 6.40363 6.26942 5.23451 -5.82737 -22.0188 
27 0.763605 2.66659 7.91792 23.4641 -2.14172 -11.5104 
28 2.64129 0.792601 7.93129 -1.91462 32.9221 -3.48636 
29 0.753123 6.40651 7.86893 1.53077 1.5321 8.36887 
30 2.65683 4.52402 7.91234 11.6959 -35.3817 -13.292 
31 4.52623 6.38714 7.8594 -1.39341 -11.2427 -0.197517 
32 6.36996 4.53195 7.85406 -12.567 -14.1883 -10.9995 
33 2.64275 0.803349 1.08924 -0.431773 -2.13929 -4.94995 
34 0.764706 4.53797 2.76737 -0.341361 0.692588 10.3395 
35 6.38133 6.40398 6.21216 -5.20037 -5.5081 -16.9433 
36 6.38308 0.795034 7.86024 1.66703 12.8877 -0.335418 
37 4.50571 2.6752 7.90602 -24.8365 13.2209 -23.4874 
38 6.37737 2.67102 6.26831 14.0763 -14.1035 -4.40288 
39 4.51658 4.51523 6.1978 -1.35812 28.2522 4.05066 
40 2.64841 2.67149 6.11703 -13.8028 -13.7399 20.8283 
41 2.63077 2.65734 8.68201 1.75821 1.35956 -35.4398 
ITEM: TIMESTEP
2
ITEM: NUMBER OF ATOMS
41
ITEM: BOX BOUNDS pp pp pp
0.0000000000000000e+00 7.4951030000000003e+00
0.0000000000000000e+00 7.4951780000000001e+00
0.0000000000000000e+00 2.0111915000000000e+01
ITEM: ATOMS id x y z fx fy fz 
1 0.777144 2.66639 1.08624 -1.50847 -0.435622 -4.96479 
2 4.5015 2.66218 1.08629 1.50324 -0.253286 -5.14201 
3 6.38318 0.785467 1.08213 0.563028 0.301355 -4.70377 
4 0.760205 6.40697 1.08363 0.842956 0.524028 -4.18722 
5 2.6392 4.52324 1.08849 -0.165693 2.05537 -5.25824 
6 4.51736 6.41001 1.08001 -0.674667 -0.0224618 -4.42339 
7 6.38709 4.53955 1.08187 0.0868518 -0.160908 -4.87397 
8 0.764885 0.788862 2.76074 -0.55381 -0.765739 11.3559 
9 2.63929 2.66386 2.7748 -0.180413 -0.424095 12.0419 
10 4.51526 0.784174 2.7672 0.203083 -0.192639 10.3808 
11 6.38672 2.66326 2.74415 0.294089 -0.508772 10.218 
12 2.64097 6.41054 2.74916 -0.391973 0.17649 12.0826 
13 4.51378 4.53644 2.76052 0.554 0.959152 9.06498 
14 6.38508 6.4107 2.76764 0.434301 0.0729015 12.8108 
15 0.74567 2.6649 4.50239 1.33104 -1.25908 13.167 
16 2.64155 0.78095 4.50015 -1.11472 7.94249 4.5289 
17 4.53316 2.6684 4.50674 -1.37621 11.6071 25.7724 
18 6.38577 0.808145 4.51077 1.07335 6.57888 5.81168 
19 0.772371 6.41031 4.50028 -0.0792247 0.902151 -0.32884 
20 2.64971 4.54661 4.50653 10.1643 -9.34282 15.1496 
21 4.50687 6.39747 4.50999 0.123951 -8.4375 7.05781 
22 6.37846 4.51739 4.51425 -9.99199 -7.39843 15.6881 
23 0.775954 0.816849 6.21536 1.41373 11.0074 -8.5138 
24 4.50387 0.811306 6.21706 -1.75688 11.5152 -9.75469 
25 0.773114 4.50973 6.2149 1.61744 -11.0845 -9.55106 
26 2.64635 6.40358 6.26924 5.21352 -5.80505 -21.9385 
27 0.763803 2.66657 7.91782 23.4004 -2.13385 -11.5055 
28 2.64127 0.79288 7.93126 -1.90726 32.8138 -3.52239 
29 0.753136 6.40652 7.869 1.53821 1.52414 8.32652 
30 2.65693 4.52372 7.91223 11.6692 -35.272 -13.3171 
31 4.52622 6.38705 7.8594 -1.40178 -11.209 -0.208976 
32 6.36985 4.53183 7.85396 -12.54 -14.1779 -11.0044 
33 2.64274 0.803331 1.0892 -0.431529 -2.1352 -4.92895 
34 0.764703 4.53798 2.76746 -0.340418 0.685969 10.3282 
35 6.38129 6.40393 6.21202 -5.1791 -5.48387 -16.8861 
36 6.38309 0.795143 7.86023 1.65913 12.868 -0.350503 
37 4.5055 2.67531 7.90582 -24.7652 13.1999 -23.4888 
38 6.37749 2.6709 6.26828 14.056 -14.0836 -4.39451 
39 4.51657 4.51547 6.19783 -1.35806 28.2128 4.04173 
40 2.6483 2.67138 6.11721 -13.7827 -13.7213 20.7841 
41 2.63078 2.65736 8.68171 1.75832 1.36052 -35.3632 
ITEM: TIMESTEP
3
ITEM: NUMBER OF ATOMS
41
ITEM: BOX BOUNDS pp pp pp
0.0000000000000000e+00 7.4951030000000003e+00
0.0000000000000000e+00 7.4951780000000001e+00
0.0000000000000000e+00 2.0111915000000000e+01
ITEM: ATOMS id x y z fx fy fz 
1 0.777118 2.66638 1.08615 -1.50061 -0.434899 -4.92501 
2 4.50153 2.66217 1.0862 1.49551 -0.252567 -5.10467 
3 6.38319 0.785472 1.08205 0.561521 0.296964 -4.66467 
4 0.760219 6.40698 1.08356 0.838611 0.522954 -4.14797 
5 2.6392 4.52328 1.0884 -0.165796 2.04665 -5.21762 
6 4.51735 6.41001 1.07993 -0.670741 -0.0205916 -4.38483 
7 6.3871 4.53955 1.08179 0.087727 -0.157957 -4.83679 
8 0.764875 0.788849 2.76093 -0.551609 -0.75329 11.3026 
9 2.63929 2.66386 2.77501 -0.172268 -0.415832 11.9789 
10 4.51527 0.784171 2.76738 0.202969 -0.17824 10.3576 
11 6.38672 2.66325 2.74433 0.284696 -0.500312 10.1868 
12 2.64096 6.41055 2.74937 -0.385224 0.168074 12.0454 
13 4.51378 4.53645 2.76067 0.551563 0.943927 9.01946 
14 6.38509 6.4107 2.76785 0.427562 0.0666568 12.7627 
15 0.745693 2.66488 4.50262 1.32735 -1.24807 13.1074 
16 2.64153 0.781085 4.50022 -1.10396 7.91988 4.51869 
17 4.53313 2.66859 4.50717 -1.37598 11.5863 25.714 
18 6.38579 0.808257 4.51087 1.06136 6.56148 5.79717 
19 0.77237 6.41032 4.50028 -0.0770491 0.889542 -0.31118 
20 2.64988 4.54645 4.50679 10.1283 -9.33474 15.1104 
21 4.50687 6.39732 4.51011 0.121195 -8.38686 7.02153 
22 6.37829 4.51727 4.51452 -9.95308 -7.3942 15.6447 
23 0.775978 0.817036 6.21522 1.40339 10.9142 -8.46335 
24 4.50384 0.811501 6.21689 -1.74445 11.4318 -9.69086 
25 0.773141 4.50954 6.21474 1.60498 -11.0118 -9.48737 
26 2.64644 6.40348 6.26887 5.17161 -5.76048 -21.7785 
27 0.764201 2.66654 7.91762 23.2732 -2.1182 -11.4956 
28 2.64124 0.793437 7.9312 -1.89261 32.5977 -3.59399 
29 0.753162 6.40655 7.86914 1.553 1.50824 8.24201 
30 2.65713 4.52312 7.912 11.6156 -35.0529 -13.3669 
31 4.5262 6.38686 7.85939 -1.4184 -11.1415 -0.231734 
32 6.36964 4.53159 7.85378 -12.486 -14.1571 -11.0141 
33 2.64274 0.803295 1.08912 -0.431024 -2.12704 -4.88696 
34 0.764697 4.53799 2.76763 -0.338528 0.672757 10.3057 
35 6.3812 6.40384 6.21173 -5.13666 -5.4355 -16.772 
36 6.38312 0.795362 7.86023 1.64336 12.8287 -0.380516 
37 4.50508 2.67553 7.90542 -24.6231 13.1578 -23.4915 
38 6.37773 2.67066 6.2682 14.0152 -14.0437 -4.37788 
39 4.51654 4.51595 6.1979 -1.35786 28.1338 4.02391 
40 2.64806 2.67114 6.11756 -13.7424 -13.6842 20.6954 
41 2.63081 2.65738 8.68111 1.75871 1.36257 -35.2103 
ITEM: TIMESTEP
4
ITEM: NUMBER OF ATOMS
41
ITEM: BOX BOUNDS pp pp pp
0.0000000000000000e+00 7.4951030000000003e+00
0.0000000000000000e+00 7.4951780000000001e+00
0.0000000000000000e+00 2.0111915000000000e+01
ITEM: ATOMS id x y z fx fy fz 
1 0.77708 2.66637 1.08603 -1.48887 -0.433785 -4.86548 
2 4.50157 2.66216 1.08607 1.48396 -0.251523 -5.04885 
3 6.38321 0.78548 1.08193 0.559234 0.290413 -4.60613 
4 0.760241 6.407 1.08345 0.832119 0.521308 -4.08919 
5 2.63919 4.52333 1.08827 -0.165981 2.03363 -5.15684 
6 4.51733 6.41001 1.07982 -0.664877 -0.0177652 -4.32708 
7 6.3871 4.53955 1.08166 0.0890671 -0.153552 -4.78115 
8 0.764861 0.78883 2.76122 -0.548319 -0.734696 11.2229 
9 2.63928 2.66384 2.77531 -0.160062 -0.403466 11.8847 
10 4.51527 0.784166 2.76764 0.202794 -0.156697 10.3229 
11 6.38673 2.66324 2.74459 0.27063 -0.487656 10.1401 
12 2.64095 6.41055 2.74967 -0.375143 0.15548 11.9898 
13 4.5138 4.53648 2.7609 0.547919 0.921167 8.95142 
14 6.3851 6.41071 2.76818 0.417492 0.0573067 12.6908 
15 0.745727 2.66485 4.50295 1.32183 -1.23169 13.0181 
16 2.6415 0.781287 4.50034 -1.0879 7.88591 4.50343 
17 4.5331 2.66889 4.50783 -1.37556 11.5551 25.6267 
18 6.38582 0.808424 4.51102 1.04344 6.53532 5.77539 
19 0.772368 6.41035 4.50027 -0.0737935 0.870691 -0.28474 
20 2.65014 4.54622 4.50718 10.0743 -9.32245 15.0519 
21 4.50687 6.39711 4.51029 0.117085 -8.31105 6.96718 
22 6.37803 4.51708 4.51492 -9.89471 -7.38769 15.5798 
23 0.776014 0.817314 6.215 1.38783 10.7748 -8.388 
24 4.50379 0.811793 6.21665 -1.72581 11.3068 -9.59561 
25 0.773182 4.50926 6.2145 1.58629 -10.903 -9.3923 
26 2.64657 6.40334 6.26831 5.10892 -5.69379 -21.5399 
27 0.764795 2.66648 7.91733 23.0824 -2.09477 -11.4806 
28 2.64119 0.79427 7.93111 -1.87065 32.2749 -3.70015 
29 0.753202 6.40659 7.86935 1.57474 1.48453 8.11599 
30 2.65742 4.52222 7.91166 11.5351 -34.7253 -13.4408 
31 4.52616 6.38657 7.85939 -1.44294 -11.0408 -0.265531 
32 6.36932 4.53123 7.85349 -12.4053 -14.1257 -11.0286 
33 2.64273 0.803241 1.08899 -0.430231 -2.11484 -4.82411 
34 0.764688 4.53801 2.76789 -0.335698 0.653023 10.272 
35 6.38107 6.4037 6.2113 -5.07325 -5.36322 -16.6014 
36 6.38316 0.795689 7.86022 1.61987 12.7699 -0.425199 
37 4.50445 2.67587 7.90482 -24.41 13.0944 -23.4954 
38 6.37809 2.6703 6.26809 13.9541 -13.9839 -4.35302 
39 4.51651 4.51667 6.198 -1.35755 28.0157 3.99707 
40 2.64771 2.67079 6.11809 -13.682 -13.6286 20.5621 
41 2.63086 2.65741 8.68021 1.75945 1.36565 -34.9819 
ITEM: TIMESTEP
5
ITEM: NUMBER OF ATOMS
41
ITEM: BOX BOUNDS pp pp pp
0.0000000000000000e+00 7.4951030000000003e+00
0.0000000000000000e+00 7.4951780000000001e+00
0.0000000000000000e+00 2.0111915000000000e+01
ITEM: ATOMS id x y z fx fy fz 
1 0.777029 2.66636 1.08586 -1.47334 -0.432235 -4.78639 
2 4.50162 2.66216 1.0859 1.46868 -0.250196 -4.97478 
3 6.38323 0.78549 1.08177 0.556124 0.281755 -4.52829 
4 0.760269 6.40701 1.08331 0.823513 0.519041 -4.01101 
5 2.63919 4.5234 1.08809 -0.166284 2.01639 -5.07614 
6 4.51731 6.41001 1.07967 -0.657108 -0.0139565 -4.25029 
7 6.3871 4.53954 1.0815 0.0909027 -0.147734 -4.7072 
8 0.764843 0.788805 2.7616 -0.54395 -0.710092 11.1172 
9 2.63928 2.66383 2.77572 -0.143838 -0.387064 11.7597 
10 4.51528 0.784161 2.768 0.20255 -0.128094 10.2765 
11 6.38674 2.66322 2.74493 0.251936 -0.470862 10.078 
12 2.64094 6.41056 2.75008 -0.361803 0.138763 11.9158 
13 4.51382 4.53651 2.76121 0.543083 0.890992 8.86125 
14 6.38512 6.41071 2.76861 0.404162 0.0448832 12.5954 
15 0.745772 2.6648 4.5034 1.31453 -1.21007 12.899 
16 2.64146 0.781558 4.50049 -1.06662 7.84053 4.48313 
17 4.53305 2.66929 4.50871 -1.37499 11.5131 25.5102 
18 6.38586 0.808648 4.51122 1.01972 6.50037 5.74635 
19 0.772365 6.41038 4.50026 -0.0694547 0.845708 -0.2496 
20 2.65049 4.5459 4.50769 10.0023 -9.30569 14.9738 
21 4.50687 6.39683 4.51052 0.111656 -8.21033 6.89492 
22 6.37769 4.51683 4.51545 -9.81705 -7.37867 15.4934 
23 0.776062 0.817683 6.21472 1.36702 10.5896 -8.28824 
24 4.50373 0.81218 6.21632 -1.70095 11.1408 -9.46963 
25 0.773237 4.50888 6.21417 1.56137 -10.7584 -9.26659 
26 2.64674 6.40314 6.26757 5.02574 -5.60527 -21.2249 
27 0.765586 2.66641 7.91694 22.8284 -2.06371 -11.4598 
28 2.64113 0.795375 7.93098 -1.84142 31.847 -3.83904 
29 0.753256 6.40664 7.86963 1.60297 1.45315 7.94934 
30 2.65782 4.52103 7.9112 11.428 -34.2904 -13.5372 
31 4.52611 6.38619 7.85938 -1.47492 -10.9072 -0.309816 
32 6.36889 4.53075 7.85312 -12.298 -14.0836 -11.0475 
33 2.64271 0.803168 1.08883 -0.429099 -2.09867 -4.7406 
34 0.764677 4.53803 2.76825 -0.331933 0.626894 10.227 
35 6.38089 6.40352 6.21074 -4.98914 -5.26728 -16.3752 
36 6.38322 0.796127 7.8602 1.58884 12.6917 -0.484049 
37 4.50361 2.67632 7.90401 -24.1263 13.0095 -23.4996 
38 6.37856 2.66982 6.26794 13.8729 -13.9043 -4.32018 
39 4.51646 4.51763 6.19814 -1.35705 27.8585 3.96109 
40 2.64724 2.67033 6.11879 -13.6017 -13.5545 20.3838 
41 2.63092 2.65746 8.67901 1.76054 1.36979 -34.6798 
ITEM: TIMESTEP
6
ITEM: NUMBER OF ATOMS
41
ITEM: BOX BOUNDS pp pp pp
0.0000000000000000e+00 7.4951030000000003e+00
0.0000000000000000e+00 7.4951780000000001e+00
0.0000000000000000e+00 2.0111915000000000e+01
ITEM: ATOMS id x y z fx fy fz 
1 0.776966 2.66634 1.08565 -1.45414 -0.430193 -4.68804 
2 4.50168 2.66215 1.08569 1.44977 -0.248645 -4.88281 
3 6.38325 0.785502 1.08158 0.552146 0.271057 -4.4314 
4 0.760305 6.40704 1.08314 0.812843 0.51609 -3.91364 
5 2.63918 4.52348 1.08787 -0.166759 1.99503 -4.97585 
6 4.51728 6.41001 1.07949 -0.647484 -0.00913036 -4.15468 
7 6.38711 4.53953 1.0813 0.0932822 -0.140543 -4.61521 
8 0.764819 0.788774 2.76208 -0.538526 -0.679647 10.986 
9 2.63927 2.66381 2.77623 -0.123634 -0.366712 11.6046 
10 4.51529 0.784155 2.76844 0.202234 -0.0925336 10.2186 
11 6.38675 2.6632 2.74537 0.228672 -0.450022 10.0006 
12 2.64092 6.41056 2.7506 -0.345289 0.117988 11.8237 
13 4.51384 4.53655 2.76159 0.537082 0.85356 8.74942 
14 6.38513 6.41071 2.76916 0.387659 0.0294309 12.4768 
15 0.745829 2.66475 4.50395 1.30556 -1.1834 12.7507 
16 2.64141 0.781895 4.50069 -1.0403 7.78372 4.45795 
17 4.53299 2.66978 4.50981 -1.37428 11.4602 25.3646 
18 6.3859 0.808928 4.51146 0.990333 6.45654 5.7101 
19 0.772362 6.41041 4.50025 -0.0640442 0.814746 -0.205908 
20 2.65092 4.5455 4.50834 9.91233 -9.28413 14.8765 
21 4.50688 6.39647 4.51082 0.104947 -8.08509 6.80496 
22 6.37727 4.51651 4.51612 -9.72013 -7.36676 15.3858 
23 0.776121 0.81814 6.21436 1.34093 10.3594 -8.16474 
24 4.50366 0.81266 6.21591 -1.6699 10.934 -9.31394 
25 0.773304 4.50842 6.21378 1.53024 -10.5787 -9.11122 
26 2.64696 6.4029 6.26666 4.92245 -5.49526 -20.8362 
27 0.766569 2.66632 7.91644 22.5119 -2.02508 -11.433 
28 2.64105 0.796747 7.93082 -1.80496 31.317 -4.00858 
29 0.753325 6.4067 7.86997 1.63697 1.41439 7.74353 
30 2.65831 4.51956 7.91061 11.2941 -33.7504 -13.6548 
31 4.52605 6.38572 7.85937 -1.51365 -10.7416 -0.36395 
32 6.36836 4.53014 7.85264 -12.1646 -14.0305 -11.0705 
33 2.64269 0.803078 1.08862 -0.427562 -2.07865 -4.6367 
34 0.764663 4.53806 2.76869 -0.327246 0.594535 10.1707 
35 6.38068 6.40329 6.21003 -4.88482 -5.1482 -16.0946 
36 6.38329 0.796673 7.86018 1.55057 12.5943 -0.556436 
37 4.50258 2.67688 7.903 -23.7726 12.9029 -23.504 
38 6.37916 2.66922 6.26775 13.772 -13.8053 -4.27941 
39 4.5164 4.51883 6.19831 -1.35626 27.663 3.91608 
40 2.64666 2.66974 6.11967 -13.5017 -13.4623 20.1607 
41 2.631 2.65752 8.67751 1.76199 1.37462 -34.3056 
ITEM: TIMESTEP
7
ITEM: NUMBER OF ATOMS
41
ITEM: BOX BOUNDS pp pp pp
0.0000000000000000e+00 7.4951030000000003e+00
0.0000000000000000e+00 7.4951780000000001e+00
0.0000000000000000e+00 2.0111915000000000e+01
ITEM: ATOMS id x y z fx fy fz 
1 0.77689 2.66632 1.08541 -1.4314 -0.427587 -4.5708 
2 4.50176 2.66213 1.08543 1.42737 -0.24694 -4.7734 
3 6.38328 0.785516 1.08134 0.547234 0.258411 -4.31574 
4 0.760347 6.40706 1.08294 0.800168 0.512374 -3.79735 
5 2.63917 4.52359 1.08762 -0.167467 1.9697 -4.8564 
6 4.51725 6.41001 1.07927 -0.636065 -0.00324622 -4.04054 
7 6.38711 4.53953 1.08106 0.0962579 -0.132044 -4.50551 
8 0.764791 0.788739 2.76265 -0.532072 -0.643594 10.83 
9 2.63926 2.6638 2.77683 -0.099507 -0.342522 11.4201 
10 4.5153 0.784151 2.76897 0.201837 -0.0501738 10.1492 
11 6.38676 2.66317 2.74589 0.200916 -0.425253 9.90814 
12 2.6409 6.41057 2.75121 -0.325727 0.0932552 11.7138 
13 4.51387 4.53659 2.76205 0.52995 0.809092 8.61664 
14 6.38515 6.41071 2.76981 0.368111 0.011019 12.3357 
15 0.745897 2.66469 4.50462 1.29497 -1.15192 12.5734 
16 2.64136 0.782301 4.50092 -1.00912 7.71546 4.42799 
17 4.53292 2.67038 4.51113 -1.3734 11.3962 25.1899 
18 6.38595 0.809264 4.51176 0.955491 6.40376 5.66664 
19 0.772359 6.41045 4.50024 -0.0575741 0.778011 -0.15384 
20 2.65144 4.54501 4.50911 9.80446 -9.2573 14.7601 
21 4.50689 6.39605 4.51118 0.097021 -7.9358 6.69759 
22 6.37676 4.51612 4.51692 -9.60411 -7.35143 15.2569 
23 0.776191 0.818679 6.21393 1.30952 10.0852 -8.0183 
24 4.50357 0.81323 6.21543 -1.63269 10.6873 -9.12973 
25 0.773384 4.50787 6.2133 1.49293 -10.3645 -8.92738 
26 2.64722 6.40261 6.26557 4.79955 -5.36422 -20.3776 
27 0.767742 2.66622 7.91585 22.1336 -1.97903 -11.3992 
28 2.64095 0.798379 7.93061 -1.76135 30.688 -4.20569 
29 0.75341 6.40678 7.87038 1.67588 1.36853 7.50016 
30 2.6589 4.5178 7.9099 11.1338 -33.1077 -13.7909 
31 4.52597 6.38516 7.85935 -1.5583 -10.5448 -0.427041 
32 6.36773 4.52941 7.85206 -12.0057 -13.9659 -11.097 
33 2.64267 0.80297 1.08838 -0.425537 -2.05488 -4.51281 
34 0.764646 4.53809 2.76922 -0.321655 0.556179 10.1033 
35 6.38043 6.40302 6.20919 -4.7609 -5.00662 -15.7612 
36 6.38337 0.79733 7.86015 1.5054 12.4779 -0.641506 
37 4.50134 2.67755 7.90178 -23.35 12.7745 -23.5073 
38 6.37988 2.66851 6.26753 13.6515 -13.6869 -4.23133 
39 4.51633 4.52027 6.19851 -1.35506 27.4294 3.86166 
40 2.64595 2.66904 6.12072 -13.3823 -13.352 19.892 
41 2.63109 2.65759 8.67573 1.76393 1.38005 -33.8626 
ITEM: TIMESTEP
8
ITEM: NUMBER OF ATOMS
41
ITEM: BOX BOUNDS pp pp pp
0.0000000000000000e+00 7.4951030000000003e+00
0.0000000000000000e+00 7.4951780000000001e+00
0.0000000000000000e+00 2.0111915000000000e+01
ITEM: ATOMS id x y z fx fy fz 
1 0.776802 2.66629 1.08513 -1.4053 -0.424334 -4.43513 
2 4.50184 2.66212 1.08514 1.40165 -0.245168 -4.6471 
3 6.38331 0.785532 1.08108 0.541316 0.243921 -4.18169 
4 0.760396 6.40709 1.0827 0.785566 0.507802 -3.66249 
5 2.63916 4.52371 1.08732 -0.168483 1.94055 -4.71832 
6 4.51721 6.41001 1.07902 -0.622926 0.00374563 -3.90822 
7 6.38712 4.53952 1.08078 0.0998953 -0.122306 -4.37852 
8 0.764758 0.788699 2.76332 -0.524619 -0.602213 10.6502 
9 2.63926 2.66377 2.77753 -0.0715252 -0.314624 11.2073 
10 4.51531 0.784147 2.76959 0.201348 -0.00118434 10.0683 
11 6.38678 2.66315 2.7465 0.16876 -0.396682 9.80082 
12 2.64088 6.41057 2.75193 -0.303269 0.0646779 11.5865 
13 4.5139 4.53664 2.76258 0.521722 0.757843 8.46372 
14 6.38518 6.41071 2.77056 0.345668 -0.0102796 12.1727 
15 0.745976 2.66462 4.50539 1.28286 -1.11602 12.3675 
16 2.6413 0.782774 4.50119 -0.973307 7.63566 4.39334 
17 4.53284 2.67108 4.51268 -1.37231 11.3207 24.9865 
18 6.38601 0.809657 4.51211 0.915446 6.34194 5.61601 
19 0.772355 6.4105 4.50023 -0.0500679 0.735713 -0.0936248 
20 2.65204 4.54444 4.51002 9.67875 -9.22471 14.6248 
21 4.50689 6.39556 4.51159 0.0879474 -7.76308 6.57322 
22 6.37617 4.51567 4.51786 -9.46927 -7.33227 15.1075 
23 0.776271 0.819298 6.21344 1.27273 9.76814 -7.85 
24 4.50347 0.813886 6.21486 -1.58935 10.4013 -8.91851 
25 0.773475 4.50723 6.21275 1.44948 -10.1167 -8.7166 
26 2.64751 6.40228 6.26432 4.65774 -5.21278 -19.8532 
27 0.769101 2.6661 7.91515 21.6943 -1.92585 -11.3578 
28 2.64085 0.800262 7.93035 -1.71069 29.9637 -4.42718 
29 0.753513 6.40686 7.87084 1.71871 1.31592 7.22129 
30 2.65958 4.51577 7.90906 10.9471 -32.3653 -13.9432 
31 4.52587 6.38452 7.85932 -1.60785 -10.318 -0.49812 
32 6.36699 4.52855 7.85138 -11.8218 -13.8897 -11.1268 
33 2.64264 0.802843 1.0881 -0.422924 -2.02752 -4.36936 
34 0.764626 4.53812 2.76984 -0.315175 0.512097 10.0246 
35 6.38013 6.40271 6.20822 -4.61809 -4.84325 -15.3769 
36 6.38346 0.798095 7.86011 1.45375 12.3429 -0.738279 
37 4.4999 2.67834 7.90033 -22.8593 12.6238 -23.5088 
38 6.38072 2.66767 6.26727 13.5119 -13.5496 -4.17629 
39 4.51625 4.52195 6.19875 -1.35338 27.1589 3.79769 
40 2.64513 2.66822 6.12194 -13.2438 -13.2239 19.5776 
41 2.6312 2.65768 8.67365 1.76677 1.38623 -33.3534 
ITEM: TIMESTEP
9
ITEM: NUMBER OF ATOMS
41
ITEM: BOX BOUNDS pp pp pp
0.0000000000000000e+00 7.4951030000000003e+00
0.0000000000000000e+00 7.4951780000000001e+00
0.0000000000000000e+00 2.0111915000000000e+01
ITEM: ATOMS id x y z fx fy fz 
1 0.776702 2.66626 1.08482 -1.37605 -0.420338 -4.28158 
2 4.50194 2.6621 1.08481 1.37279 -0.243423 -4.50458 
3 6.38335 0.785549 1.08078 0.534308 0.227714 -4.0297 
4 0.760452 6.40713 1.08244 0.769123 0.502265 -3.50945 
5 2.63915 4.52385 1.08698 -0.16989 1.90779 -4.56223 
6 4.51716 6.41001 1.07875 -0.608154 0.0118974 -3.75815 
7 6.38712 4.53951 1.08047 0.104264 -0.111412 -4.23472 
8 0.764721 0.788657 2.76407 -0.516202 -0.55585 10.4473 
9 2.63925 2.66375 2.77833 -0.0397875 -0.283196 10.9673 
10 4.51532 0.784147 2.77031 0.200755 0.054218 9.97588 
11 6.38679 2.66312 2.74719 0.13233 -0.364486 9.67893 
12 2.64086 6.41058 2.75275 -0.278101 0.0324037 11.4423 
13 4.51394 4.5367 2.76318 0.512444 0.700113 8.29164 
14 6.3852 6.41071 2.77143 0.320516 -0.0343658 11.9885 
15 0.746067 2.66454 4.50627 1.26937 -1.07602 12.1337 
16 2.64123 0.783316 4.5015 -0.933144 7.5443 4.35419 
17 4.53274 2.67188 4.51445 -1.37102 11.2333 24.7544 
18 6.38607 0.810107 4.51251 0.870478 6.27097 5.55823 
19 0.772352 6.41055 4.50022 -0.0415571 0.688155 -0.0255802 
20 2.65272 4.54379 4.51105 9.53536 -9.18568 14.471 
21 4.5069 6.39501 4.51205 0.0778164 -7.56766 6.43227 
22 6.3755 4.51515 4.51893 -9.31581 -7.3085 14.9376 
23 0.776361 0.819991 6.21289 1.23055 9.40979 -7.66103 
24 4.50336 0.814623 6.21423 -1.53994 10.0771 -8.68205 
25 0.773578 4.50652 6.21213 1.39994 -9.83631 -8.48063 
26 2.64784 6.40191 6.26291 4.49773 -5.04157 -19.268 
27 0.770639 2.66596 7.91434 21.1956 -1.86574 -11.3078 
28 2.64072 0.802386 7.93004 -1.65307 29.1489 -4.6692 
29 0.753635 6.40695 7.87135 1.76434 1.25698 6.90932 
30 2.66036 4.51347 7.90807 10.7343 -31.5271 -14.1088 
31 4.52576 6.38379 7.85929 -1.66119 -10.0625 -0.575965 
32 6.36616 4.52757 7.85059 -11.6137 -13.8012 -11.1589 
33 2.64261 0.8027 1.08779 -0.419616 -1.99674 -4.20692 
34 0.764603 4.53816 2.77055 -0.307833 0.462613 9.93484 
35 6.37981 6.40237 6.20713 -4.45731 -4.65908 -14.9439 
36 6.38356 0.79897 7.86006 1.39612 12.1895 -0.845557 
37 4.49828 2.67923 7.89867 -22.3023 12.4506 -23.5073 
38 6.38167 2.6667 6.26698 13.3537 -13.3938 -4.11477 
39 4.51615 4.52388 6.19902 -1.35103 26.852 3.72411 
40 2.64419 2.66729 6.12333 -13.0866 -13.0784 19.2175 
41 2.63132 2.65777 8.67128 1.77047 1.39277 -32.7821 
ITEM: TIMESTEP
10
ITEM: NUMBER OF ATOMS
41
ITEM: BOX BOUNDS pp pp pp
0.0000000000000000e+00 7.4951030000000003e+00
0.0000000000000000e+00 7.4951780000000001e+00
0.0000000000000000e+00 2.0111915000000000e+01
ITEM: ATOMS id x y z fx fy fz 
1 0.776591 2.66622 1.08447 -1.34388 -0.415498 -4.1108 
2 4.50205 2.66208 1.08444 1.34102 -0.241809 -4.3466 
3 6.38339 0.785568 1.08046 0.526123 0.209931 -3.86029 
4 0.760514 6.40717 1.08216 0.750938 0.495647 -3.33873 
5 2.63913 4.524 1.08661 -0.171778 1.87162 -4.38886 
6 4.51712 6.41001 1.07844 -0.591844 0.0212669 -3.59082 
7 6.38713 4.5395 1.08013 0.109443 -0.0994595 -4.07469 
8 0.76468 0.788612 2.76492 -0.506857 -0.504897 10.2228 
9 2.63925 2.66373 2.77921 -0.00438913 -0.24842 10.7015 
10 4.51534 0.784152 2.77111 0.200035 0.115771 9.87213 
11 6.3868 2.66309 2.74797 0.091755 -0.328845 9.54285 
12 2.64084 6.41058 2.75368 -0.250428 -0.00340781 11.2815 
13 4.51398 4.53675 2.76385 0.50216 0.636284 8.10152 
14 6.38523 6.41071 2.77239 0.292867 -0.0611312 11.7842 
15 0.74617 2.66445 4.50725 1.25461 -1.03241 11.8727 
16 2.64115 0.783925 4.50185 -0.88896 7.44138 4.31069 
17 4.53263 2.67279 4.51645 -1.36946 11.1336 24.4938 
18 6.38614 0.810613 4.51295 0.820936 6.19075 5.49334 
19 0.772348 6.41061 4.50022 -0.0320838 0.635657 0.0499067 
20 2.65349 4.54305 4.51222 9.37441 -9.1395 14.299 
21 4.5069 6.3944 4.51257 0.0667295 -7.35042 6.27535 
22 6.37475 4.51456 4.52013 -9.14405 -7.2794 14.7477 
23 0.776461 0.820751 6.21227 1.18295 9.01181 -7.45275 
24 4.50324 0.815437 6.21353 -1.48456 9.71581 -8.42232 
25 0.773691 4.50572 6.21145 1.3444 -9.52466 -8.22146 
26 2.6482 6.40151 6.26136 4.32039 -4.85134 -18.6275 
27 0.77235 2.66581 7.91343 20.639 -1.79907 -11.2484 
28 2.64059 0.80474 7.92966 -1.58862 28.2488 -4.92762 
29 0.753777 6.40705 7.87191 1.81152 1.19218 6.56694 
30 2.66122 4.51093 7.90693 10.4957 -30.5974 -14.2844 
31 4.52562 6.38297 7.85924 -1.71708 -9.77978 -0.659262 
32 6.36522 4.52645 7.84969 -11.3824 -13.6999 -11.1926 
33 2.64258 0.802539 1.08745 -0.415487 -1.96275 -4.02611 
34 0.764579 4.5382 2.77135 -0.299648 0.408116 9.83398 
35 6.37945 6.40199 6.20593 -4.27959 -4.45514 -14.4649 
36 6.38368 0.799955 7.85999 1.33303 12.0183 -0.962021 
37 4.49648 2.68024 7.89677 -21.6806 12.2547 -23.5017 
38 6.38275 2.66562 6.26664 13.1774 -13.2199 -4.04734 
39 4.51605 4.52605 6.19932 -1.34781 26.5098 3.64063 
40 2.64314 2.66623 6.12488 -12.9112 -12.9159 18.8114 
41 2.63146 2.65789 8.66864 1.77523 1.39962 -32.1528 
ITEM: TIMESTEP
11
ITEM: NUMBER OF ATOMS
41
ITEM: BOX BOUNDS pp pp pp
0.0000000000000000e+00 7.4951030000000003e+00
0.0000000000000000e+00 7.4951780000000001e+00
0.0000000000000000e+00 2.0111915000000000e+01
ITEM: ATOMS id x y z fx fy fz 
1 0.776469 2.66619 1.0841 -1.30903 -0.409706 -3.92349 
2 4.50218 2.66206 1.08405 1.30657 -0.240436 -4.17403 
3 6.38344 0.785587 1.08011 0.516663 0.190728 -3.67405 
4 0.760582 6.40722 1.08186 0.731121 0.487823 -3.15089 
5 2.63912 4.52417 1.08621 -0.174242 1.83229 -4.19904 
6 4.51706 6.41001 1.07812 -0.574106 0.0319104 -3.4068 
7 6.38714 4.53949 1.07976 0.11551 -0.0865522 -3.89908 
8 0.764633 0.788566 2.76585 -0.49663 -0.449807 9.97781 
9 2.63925 2.66371 2.78018 0.0345448 -0.210517 10.4113 
10 4.51536 0.784162 2.77201 0.199172 0.183183 9.75711 
11 6.38681 2.66306 2.74884 0.0471996 -0.289974 9.39298 
12 2.64082 6.41058 2.7547 -0.220494 -0.0425626 11.105 
13 4.51403 4.53681 2.76458 0.490927 0.566754 7.89467 
14 6.38525 6.4107 2.77347 0.262967 -0.0904442 11.5606 
15 0.746284 2.66436 4.50833 1.23871 -0.985737 11.5853 
16 2.64107 0.784602 4.50225 -0.841125 7.32686 4.26299 
17 4.5325 2.6738 4.51867 -1.36757 11.0209 24.2051 
18 6.38622 0.811177 4.51345 0.767213 6.10116 5.42135 
19 0.772345 6.41067 4.50023 -0.0216984 0.578586 0.132377 
20 2.65435 4.54222 4.51352 9.19608 -9.08534 14.1093 
21 4.50691 6.39373 4.51314 0.0548203 -7.1124 6.10309 
22 6.37392 4.5139 4.52148 -8.95434 -7.24407 14.5383 
23 0.776568 0.82157 6.21159 1.12992 8.57624 -7.22671 
24 4.5031 0.816321 6.21277 -1.42328 9.31868 -8.14154 
25 0.773813 4.50486 6.2107 1.28293 -9.18314 -7.94131 
26 2.6486 6.40107 6.25966 4.12675 -4.64299 -17.9376 
27 0.774228 2.66565 7.91241 20.0262 -1.72631 -11.1784 
28 2.64045 0.80731 7.92921 -1.51755 27.269 -5.19793 
29 0.753942 6.40716 7.8725 1.85901 1.12198 6.19711 
30 2.66218 4.50814 7.90563 10.2318 -29.581 -14.4664 
31 4.52547 6.38208 7.85918 -1.77418 -9.47147 -0.746587 
32 6.36418 4.52521 7.84868 -11.1286 -13.5852 -11.2273 
33 2.64254 0.80236 1.08709 -0.410411 -1.92576 -3.82768 
34 0.764551 4.53823 2.77224 -0.290656 0.349032 9.72215 
35 6.37906 6.40159 6.20461 -4.08606 -4.23261 -13.9429 
36 6.3838 0.801048 7.85991 1.26511 11.8297 -1.08618 
37 4.49451 2.68135 7.89463 -20.9966 12.0356 -23.4904 
38 6.38395 2.66442 6.26628 12.9836 -13.0281 -3.97469 
39 4.51592 4.52846 6.19965 -1.34366 26.1334 3.5471 
40 2.64196 2.66505 6.12659 -12.7181 -12.7366 18.3596 
41 2.63163 2.65801 8.66571 1.78156 1.40692 -31.4703 
ITEM: TIMESTEP
12
ITEM: NUMBER OF ATOMS
41
ITEM: BOX BOUNDS pp pp pp
0.0000000000000000e+00 7.4951030000000003e+00
0.0000000000000000e+00 7.4951780000000001e+00
0.0000000000000000e+00 2.0111915000000000e+01
ITEM: ATOMS id x y z fx fy fz 
1 0.776336 2.66615 1.0837 -1.27179 -0.402852 -3.7205 
2 4.50231 2.66203 1.08363 1.2697 -0.239412 -3.98784 
3 6.38349 0.785606 1.07973 0.505834 0.170278 -3.47169 
4 0.760656 6.40727 1.08154 0.709793 0.478662 -2.94656 