LAMMPS (3 Mar 2020)
# minimizing input file for REAX optimization
variable        dt equal 1.0

units           real
boundary        p p p
# needed for triclinic systems w large skew
box		tilt large

atom_style      charge
read_data       data.cu
  orthogonal box = (0 0 0) to (7.4951 7.49518 20.1119)
  1 by 1 by 1 MPI processor grid
  reading atoms ...
  41 atoms
  read_data CPU = 0.001198 secs

mass		1 63.5463
mass		2 58.6934
mass		3 15.9999

pair_style	reax/c NULL safezone 2.4 mincap 200
pair_coeff	* * ffield.reax.temp Cu Ni O

neighbor	2 bin
neigh_modify	every 10 delay 0 check no

fix             reax all qeq/reax 1 0.0 10.0 1e-6 reax/c

timestep        ${dt}
timestep        1

thermo          1
thermo_style    custom step etotal pe atoms
thermo_modify   lost ignore

dump            3 all custom 1 forces.dat id x y z fx fy fz
dump_modify	3 sort id

# configuration output section
min_style       quickmin
minimize        1.0e-8 1.0e-6 1000 1000
WARNING: Using 'neigh_modify every 1 delay 0 check yes' setting during minimization (src/min.cpp:190)
Neighbor list info ...
  update every 1 steps, delay 0 steps, check yes
  max neighbors/atom: 2000, page size: 100000
  master list distance cutoff = 12
  ghost atom cutoff = 12
  binsize = 6, bins = 2 2 4
  2 neighbor lists, perpetual/occasional/extra = 2 0 0
  (1) pair reax/c, perpetual
      attributes: half, newton off, ghost
      pair build: half/bin/newtoff/ghost
      stencil: half/ghost/bin/3d/newtoff
      bin: standard
  (2) fix qeq/reax, perpetual, copy from (1)
      attributes: half, newton off, ghost
      pair build: copy
      stencil: none
      bin: none
Per MPI rank memory allocation (min/avg/max) = 61.52 | 61.52 | 61.52 Mbytes
Step TotEng PotEng Atoms 
       0   -3707.5512   -3707.5512       41 
       1   -3707.4932   -3707.5512       41 
       2   -3707.4247    -3707.667       41 
       3   -3707.3349   -3707.8979       41 
       4   -3707.2241   -3708.2421       41 
       5   -3707.0925    -3708.697       41 
       6   -3706.9408   -3709.2589       41 
       7   -3706.7696   -3709.9234       41 
       8   -3706.5799   -3710.6851       41 
       9   -3706.3727    -3711.538       41 
      10   -3706.1495   -3712.4755       41 
      11   -3705.9115   -3713.4902       41 
      12   -3705.6603   -3714.5745       41 
      13   -3705.3977   -3715.7203       41 
      14   -3705.1256   -3716.9195       41 
      15   -3704.8457   -3718.1636       41 
      16   -3704.5603   -3719.4443       41 
      17   -3704.2713   -3720.7535       41 
      18   -3703.9809   -3722.0832       41 
      19   -3703.6914   -3723.4259       41 
      20   -3703.4049   -3724.7746       41 
      21   -3703.1236   -3726.1229       41 
      22   -3702.8496    -3727.465       41 
      23   -3702.5849   -3728.7959       41 
      24   -3702.3313   -3730.1115       41 
      25   -3702.0904   -3731.4084       41 
      26   -3701.8632   -3732.6841       41 
      27   -3701.6507   -3733.9367       41 
      28   -3701.4531   -3735.1653       41 
      29   -3701.2705   -3736.3693       41 
      30   -3701.1024   -3737.5487       41 
      31    -3700.948    -3738.704       41 
      32   -3700.8065   -3739.8357       41 
      33   -3700.6768   -3740.9448       41 
      34    -3700.551   -3742.0326       41 
      35   -3700.4402      -3743.1       41 
      36    -3700.314   -3744.1483       41 
      37   -3700.2123   -3745.1769       41 
      38   -3700.1125   -3746.1862       41 
      39   -3700.0126    -3747.177       41 
      40   -3699.8944   -3748.1489       41 
      41   -3699.7835   -3749.1013       41 
      42   -3699.6604    -3750.034       41 
      43   -3699.5242   -3750.9493       41 
      44   -3699.3347   -3751.8444       41 
      45   -3699.1437   -3752.7176       41 
      46   -3698.9286   -3753.5677       41 
      47   -3698.6876   -3754.3936       41 
      48   -3698.4053   -3755.1944       41 
      49   -3698.1165   -3755.9681       41 
      50   -3697.8111   -3756.7134       41 
      51   -3697.4946   -3757.4291       41 
      52   -3697.1768    -3758.114       41 
      53   -3696.8649   -3758.7676       41 
      54   -3696.5464    -3759.389       41 
      55   -3696.2835   -3759.9775       41 
      56   -3696.0344   -3760.5329       41 
      57   -3695.7954   -3761.0555       41 
      58   -3695.5658   -3761.5452       41 
      59   -3695.3686   -3762.0021       41 
      60   -3695.2005   -3762.4266       41 
      61   -3695.0752     -3762.82       41 
      62   -3694.9896   -3763.1814       41 
      63   -3694.8982   -3763.5114       41 
      64   -3694.7708   -3763.8105       41 
      65   -3694.8582   -3764.0797       41 
      66   -3694.9803   -3764.3182       41 
      67   -3695.2457   -3764.5267       41 
      68   -3695.4582   -3764.7048       41 
      69   -3697.7497   -3764.8496       41 
      70    -3711.306   -3764.9371       41 
      71   -3759.6405   -3764.9712       41 
      72   -3762.5154    -3764.991       41 
      73   -3762.5315   -3765.0097       41 
      74   -3762.5265   -3765.0275       41 
      75   -3762.5222   -3765.0443       41 
      76    -3762.518   -3765.0602       41 
      77    -3762.514   -3765.0751       41 
      78   -3762.5099    -3765.089       41 
      79   -3762.5087    -3765.102       41 
      80   -3762.5154    -3765.114       41 
      81   -3762.5128    -3765.125       41 
      82   -3762.5179   -3765.1351       41 
      83   -3762.5317   -3765.1441       41 
      84   -3762.5414   -3765.1521       41 
      85   -3762.5823   -3765.1589       41 
      86     -3762.73   -3765.1644       41 
      87   -3763.7033   -3765.1673       41 
      88   -3765.1137   -3765.1682       41 
      89   -3765.1191   -3765.1688       41 
      90   -3765.1247   -3765.1694       41 
      91   -3765.1264     -3765.17       41 
      92   -3765.1266   -3765.1705       41 
      93   -3765.1266    -3765.171       41 
      94   -3765.1266   -3765.1716       41 
      95   -3765.1265   -3765.1721       41 
      96   -3765.1265   -3765.1726       41 
      97   -3765.1265    -3765.173       41 
      98   -3765.1264   -3765.1735       41 
      99   -3765.1264   -3765.1739       41 
     100   -3765.1263   -3765.1744       41 
     101   -3765.1263   -3765.1748       41 
     102   -3765.1263   -3765.1752       41 
     103   -3765.1262   -3765.1755       41 
     104   -3765.1262   -3765.1759       41 
     105   -3765.1262   -3765.1762       41 
     106   -3765.1262   -3765.1766       41 
     107   -3765.1261   -3765.1769       41 
     108   -3765.1261   -3765.1771       41 
     109   -3765.1261   -3765.1774       41 
     110   -3765.1261   -3765.1777       41 
     111   -3765.1261   -3765.1779       41 
     112   -3765.1261   -3765.1781       41 
     113   -3765.1261   -3765.1783       41 
     114   -3765.1261   -3765.1784       41 
     115   -3765.1261   -3765.1786       41 
     116   -3765.1271   -3765.1787       41 
     117   -3765.1415   -3765.1788       41 
     118   -3765.1788   -3765.1788       41 
     119   -3765.1787   -3765.1787       41 
     120   -3765.1787   -3765.1787       41 
     121   -3765.1787   -3765.1787       41 
     122   -3765.1787   -3765.1787       41 
     123   -3765.1787   -3765.1788       41 
     124   -3765.1787   -3765.1788       41 
Loop time of 1.32349 on 1 procs for 124 steps with 41 atoms

98.5% CPU use with 1 MPI tasks x no OpenMP threads

Minimization stats:
  Stopping criterion = energy tolerance
  Energy initial, next-to-last, final = 
        -3707.55116297     -3765.17875113     -3765.17875611
  Force two-norm initial, final = 116.955 0.16831
  Force max component initial, final = 35.4398 0.0735435
  Final line search alpha, max atom move = 0 0
  Iterations, force evaluations = 124 124

MPI task timing breakdown:
Section |  min time  |  avg time  |  max time  |%varavg| %total
---------------------------------------------------------------
Pair    | 1.2633     | 1.2633     | 1.2633     |   0.0 | 95.45
Neigh   | 0          | 0          | 0          |   0.0 |  0.00
Comm    | 0.0015466  | 0.0015466  | 0.0015466  |   0.0 |  0.12
Output  | 0.016571   | 0.016571   | 0.016571   |   0.0 |  1.25
Modify  | 0.040775   | 0.040775   | 0.040775   |   0.0 |  3.08
Other   |            | 0.001298   |            |       |  0.10

Nlocal:    41 ave 41 max 41 min
Histogram: 1 0 0 0 0 0 0 0 0 0
Nghost:    1303 ave 1303 max 1303 min
Histogram: 1 0 0 0 0 0 0 0 0 0
Neighs:    11560 ave 11560 max 11560 min
Histogram: 1 0 0 0 0 0 0 0 0 0

Total # of neighbors = 11560
Ave neighs/atom = 281.951
Neighbor list builds = 0
Dangerous builds not checked

Please see the log.cite file for references relevant to this simulation

Total wall time: 0:00:01
