 # LAMMPS data file written by Ovito Pyth
 
          41  atoms
           3  atom types
 
      0.000000000000       7.495103000000  xlo xhi
      0.000000000000       7.495178000000  ylo yhi
      0.000000000000      20.111915000000  zlo zhi
 
Masses
 
            1   63.54600000             # Cu
            2   58.69340000             # Ni
            3   15.99900000             # O
 
Atoms # charge
 
         1    1   0.000000        0.765007179003       2.661246039479       1.055658834452
         2    1   0.000000        4.512893027025       2.661121512095       1.037963152848
         3    1   0.000000        6.379444113679       0.793968729101       1.048874263895
         4    1   0.000000        0.765241244808       6.408541970790       1.043692751112
         5    1   0.000000        2.646206630142       4.527902014051       1.049054686531
         6    1   0.000000        4.512848820653       6.408526728411       1.055769083840
         7    1   0.000000        6.379425591309       4.528137427151       1.048874718581
         8    1   0.000000        0.765228561929       0.782143866718       2.720568450826
         9    1   0.000000        2.645154784909       2.660946872244       2.727350162488
        10    1   0.000000        4.512689219965       0.793333821449       2.727523100817
        11    1   0.000000        6.379997556186       2.661035115380       2.727550093679
        12    1   0.000000        2.633764815335       6.408684323961       2.720859417995
        13    1   0.000000        4.512808228913       4.528392678510       2.727733761940
        14    1   0.000000        6.391745631321       6.408530462286       2.720948497213
        15    1   0.000000        0.765106075133       2.660873279647       4.470746203087
        16    1   0.000000        2.629916396248       0.778119698361       4.471832803085
        17    1   0.000000        4.512742802287       2.660580740316       4.486296419689
        18    1   0.000000        6.395767900503       0.777918191165       4.471833869768
        19    1   0.000000        0.765356930065       6.408484417979       4.474664975998
        20    1   0.000000        2.629915901910       4.543479357572       4.471654915273
        21    1   0.000000        4.512871265060       6.408206892108       4.470864213042
        22    1   0.000000        6.395796174297       4.543663240459       4.472027119280
        23    1   0.000000        0.765129434813       0.785478387625       6.234450395190
        24    1   0.000000        4.512924413166       0.787702011838       6.195491304274
        25    1   0.000000        6.385422500122       2.660651816932       6.195815548067
        26    1   0.000000        0.765203600026       4.535769385237       6.235030385064
        27    1   0.000000        2.637673474848       6.407710333670       6.234620127188
        28    1   0.000000        4.512842245204       4.533030221036       6.195825439075
        29    1   0.000000        2.646249855613       0.794296882312       1.048624987262
        30    1   0.000000        0.765085351536       4.539938721719       2.720861707735
        31    1   0.000000        2.640146373191       2.660745217452       6.195570031392
        32    1   0.000000        6.388063817043       6.407782919491       6.234854993012
        33    1   0.000000        0.765603264762       2.660542025044       7.872649438023
        34    1   0.000000        2.659766180303       0.807426178312       7.908256795017
        35    1   0.000000        6.365987101046       0.807525953640       7.908972427523
        36    1   0.000000        6.365312157516       4.512912747939       7.910435547513
        37    1   0.000000        4.512963081093       6.408268553531       7.872588754657
        38    1   0.000000        2.660340218114       4.513099784772       7.909917717777
        39    1   0.000000        0.765109414524       6.408025070951       7.903764720520
        40    2   0.000000        4.512426836110       2.659695983354       7.844759038591
        41    3   0.000000        4.518703830297       2.668635425915       9.499113146680
