LAMMPS (3 Mar 2020)
# minimizing input file for REAX optimization
variable        dt equal 1.0

units           real
boundary        p p p
# needed for triclinic systems w large skew
box		tilt large

atom_style      charge
read_data       data.cu
  orthogonal box = (0 0 0) to (7.4951 7.49518 20.1119)
  1 by 1 by 1 MPI processor grid
  reading atoms ...
  41 atoms
  read_data CPU = 0.0013631 secs

mass		1 63.5463
mass		2 58.6934
mass		3 15.9999

pair_style	reax/c NULL safezone 2.4 mincap 200
pair_coeff	* * ffield.reax.temp Cu Ni O

neighbor	2 bin
neigh_modify	every 10 delay 0 check no

fix             reax all qeq/reax 1 0.0 10.0 1e-6 reax/c

timestep        ${dt}
timestep        1

thermo          1
thermo_style    custom step etotal pe atoms
thermo_modify   lost ignore

dump            3 all custom 1 forces.dat id x y z fx fy fz
dump_modify	3 sort id

# configuration output section
min_style       quickmin
minimize        1.0e-8 1.0e-6 1000 1000
WARNING: Using 'neigh_modify every 1 delay 0 check yes' setting during minimization (src/min.cpp:190)
Neighbor list info ...
  update every 1 steps, delay 0 steps, check yes
  max neighbors/atom: 2000, page size: 100000
  master list distance cutoff = 12
  ghost atom cutoff = 12
  binsize = 6, bins = 2 2 4
  2 neighbor lists, perpetual/occasional/extra = 2 0 0
  (1) pair reax/c, perpetual
      attributes: half, newton off, ghost
      pair build: half/bin/newtoff/ghost
      stencil: half/ghost/bin/3d/newtoff
      bin: standard
  (2) fix qeq/reax, perpetual, copy from (1)
      attributes: half, newton off, ghost
      pair build: copy
      stencil: none
      bin: none
Per MPI rank memory allocation (min/avg/max) = 61.9 | 61.9 | 61.9 Mbytes
Step TotEng PotEng Atoms 
       0   -3278.5599   -3278.5599       41 
       1   -3277.8504   -3278.5599       41 
       2   -3276.8015   -3279.9646       41 
       3   -3275.0876   -3282.6876       41 
       4   -3272.7415   -3286.5353       41 
       5   -3269.8383   -3291.2307       41 
       6   -3266.4827   -3296.4475       41 
       7   -3262.7901   -3301.8476       41 
       8   -3258.8627   -3307.1154       41 
       9    -3254.765   -3311.9848       41 
      10    -3250.502   -3316.2563       41 
      11   -3246.0103   -3319.8074       41 
      12   -3241.2162   -3322.5975       41 
      13   -3236.3706    -3324.671       41 
      14    -3233.241   -3326.1555       41 
      15   -3236.8563   -3327.2423       41 
      16   -3246.6937   -3328.1211       41 
      17   -3255.4158   -3328.9039       41 
      18    -3260.676   -3329.6424       41 
      19   -3263.9457   -3330.3626       41 
      20   -3266.3318   -3331.0817       41 
      21    -3268.241   -3331.8139       41 
      22   -3269.7631   -3332.5732       41 
      23   -3270.9099   -3333.3739       41 
      24   -3271.6852   -3334.2321       41 
      25   -3272.1089   -3335.1651       41 
      26     -3272.22   -3336.1918       41 
      27   -3272.0763    -3337.333       41 
      28   -3271.7425    -3338.613       41 
      29   -3271.2031   -3340.0563       41 
      30   -3270.6559   -3341.6939       41 
      31   -3270.2115   -3343.5656       41 
      32    -3269.878   -3345.7296       41 
      33   -3269.7376   -3348.2705       41 
      34   -3269.7805   -3351.3028       41 
      35    -3269.804   -3354.9535       41 
      36   -3269.3926   -3359.3002       41 
      37   -3268.0761   -3364.2739       41 
      38   -3265.5503   -3369.5991       41 
      39    -3261.776    -3374.891       41 
      40   -3257.0463   -3379.8941       41 
      41   -3252.2535   -3384.6489       41 
      42   -3249.1729   -3389.4356       41 
      43   -3248.5107   -3394.5333       41 
      44   -3247.9265   -3399.9231       41 
      45    -3243.521   -3403.9485       41 
      46   -3371.7282   -3405.6928       41 
      47   -3377.4686   -3407.0176       41 
      48   -3378.8621   -3408.1878       41 
      49   -3378.9894   -3409.2017       41 
      50   -3379.9321    -3410.068       41 
      51   -3380.3636    -3410.799       41 
      52   -3380.9858   -3411.4176       41 
      53   -3381.3904    -3411.945       41 
      54   -3381.5244    -3412.404       41 
      55   -3381.7959   -3412.8106       41 
      56   -3382.3402   -3413.1788       41 
      57   -3383.5648   -3413.5213       41 
      58   -3386.1595   -3413.8542       41 
      59   -3389.8079   -3414.1857       41 
      60   -3391.5838   -3414.4975       41 
      61   -3391.8481   -3414.7777       41 
      62   -3391.5016   -3415.0354       41 
      63   -3391.0874   -3415.2814       41 
      64   -3390.1925   -3415.5206       41 
      65   -3389.4559   -3415.7579       41 
      66   -3388.9612   -3415.9959       41 
      67   -3388.7575   -3416.2351       41 
      68   -3388.6955   -3416.4756       41 
      69   -3388.8223   -3416.7169       41 
      70   -3388.9918   -3416.9585       41 
      71   -3389.2713   -3417.2032       41 
      72   -3389.6159   -3417.4507       41 
      73   -3389.8122   -3417.6956       41 
      74   -3390.1109   -3417.9389       41 
      75   -3390.2764   -3418.1816       41 
      76   -3391.5282   -3418.4336       41 
      77   -3391.6496   -3418.6893       41 
      78   -3391.8965     -3418.95       41 
      79   -3391.9916   -3419.2166       41 
      80   -3392.2812   -3419.4916       41 
      81     -3392.61   -3419.7766       41 
      82   -3392.9669   -3420.0737       41 
      83   -3393.3285   -3420.3855       41 
      84   -3393.7024   -3420.7145       41 
      85   -3394.0642   -3421.0637       41 
      86    -3394.407   -3421.4363       41 
      87   -3394.7135   -3421.8359       41 
      88   -3394.9809   -3422.2671       41 
      89   -3395.2068   -3422.7362       41 
      90   -3395.3862    -3423.253       41 
      91   -3395.4916   -3423.8335       41 
      92   -3395.4588   -3424.5041       41 
      93   -3395.1695   -3425.3076       41 
      94   -3394.4854   -3426.3083       41 
      95   -3393.3465   -3427.5944       41 
      96   -3391.8441   -3429.2677       41 
      97   -3390.1651   -3431.4151       41 
      98   -3388.4878   -3434.0588       41 
      99   -3386.9818   -3437.1013       41 
     100   -3385.9491    -3440.308       41 
     101   -3385.9877   -3443.3707       41 
     102   -3387.9331   -3446.0373       41 
     103   -3392.0492   -3448.2157       41 
     104   -3396.2416   -3449.9736       41 
     105   -3396.7202   -3451.4467       41 
     106   -3393.5774   -3452.7519       41 
     107   -3390.0143   -3453.9684       41 
     108   -3387.6426   -3455.1615       41 
     109   -3386.8387   -3456.4134       41 
     110   -3387.5896   -3457.8654       41 
     111   -3388.8543   -3459.7731       41 
     112   -3388.7849   -3462.5206       41 
     113   -3387.0481   -3466.4786       41 
     114   -3384.6077   -3471.6547       41 
     115   -3382.4385   -3477.3813       41 
     116   -3382.4596   -3482.5691       41 
     117   -3387.7393   -3486.5415       41 
     118   -3394.5434   -3489.4581       41 
     119   -3391.4226   -3491.7501       41 
     120   -3388.8549   -3493.6249       41 
     121   -3391.9552   -3495.1554       41 
     122   -3394.8532   -3496.4024       41 
     123   -3394.0694   -3497.4201       41 
     124   -3389.7414   -3498.2505       41 
     125   -3383.1207   -3498.9224       41 
     126   -3375.8378   -3499.4543       41 
     127   -3369.2486   -3499.8574       41 
     128   -3363.2548   -3500.1413       41 
     129   -3360.5209    -3500.316       41 
     130    -3378.452   -3500.3223       41 
     131    -3500.322   -3500.3223       41 
     132   -3500.3217   -3500.3228       41 
     133   -3500.3214   -3500.3239       41 
     134    -3500.321   -3500.3254       41 
     135   -3500.3206   -3500.3274       41 
     136   -3500.3201   -3500.3299       41 
     137   -3500.3196   -3500.3328       41 
     138   -3500.3191    -3500.336       41 
     139   -3500.3185   -3500.3396       41 
     140   -3500.3179   -3500.3434       41 
     141   -3500.3172   -3500.3475       41 
     142   -3500.3166   -3500.3516       41 
     143   -3500.3159   -3500.3559       41 
     144   -3500.3152   -3500.3601       41 
     145   -3500.3146   -3500.3643       41 
     146   -3500.3139   -3500.3684       41 
     147   -3500.3133   -3500.3723       41 
     148   -3500.3127   -3500.3759       41 
     149   -3500.3122   -3500.3792       41 
     150   -3500.3118   -3500.3822       41 
     151   -3500.3117   -3500.3848       41 
     152   -3500.3119   -3500.3869       41 
     153   -3500.3128   -3500.3887       41 
     154   -3500.3152     -3500.39       41 
     155     -3500.32   -3500.3911       41 
     156   -3500.3264    -3500.392       41 
     157     -3500.33   -3500.3927       41 
     158   -3500.3306   -3500.3935       41 
     159   -3500.3304   -3500.3942       41 
     160   -3500.3301   -3500.3949       41 
     161   -3500.3298   -3500.3956       41 
     162   -3500.3295   -3500.3962       41 
     163   -3500.3293   -3500.3968       41 
     164    -3500.329   -3500.3973       41 
     165   -3500.3288   -3500.3978       41 
     166   -3500.3286   -3500.3983       41 
     167   -3500.3284   -3500.3988       41 
     168   -3500.3283   -3500.3992       41 
     169   -3500.3282   -3500.3996       41 
     170    -3500.328   -3500.3999       41 
     171   -3500.3279   -3500.4002       41 
     172   -3500.3277   -3500.4005       41 
     173   -3500.3276   -3500.4007       41 
     174   -3500.3275   -3500.4009       41 
     175   -3500.3278   -3500.4011       41 
     176   -3500.3298   -3500.4011       41 
     177   -3500.3934   -3500.4012       41 
     178   -3500.4012   -3500.4012       41 
     179   -3500.4012   -3500.4012       41 
     180   -3500.4012   -3500.4012       41 
     181   -3500.4012   -3500.4012       41 
     182   -3500.4012   -3500.4012       41 
     183   -3500.4012   -3500.4012       41 
     184   -3500.4012   -3500.4012       41 
Loop time of 1.90606 on 1 procs for 184 steps with 41 atoms

98.6% CPU use with 1 MPI tasks x no OpenMP threads

Minimization stats:
  Stopping criterion = energy tolerance
  Energy initial, next-to-last, final = 
        -3278.55991539     -3500.40117348     -3500.40117806
  Force two-norm initial, final = 316.779 0.0887422
  Force max component initial, final = 240.769 0.0612539
  Final line search alpha, max atom move = 0 0
  Iterations, force evaluations = 184 184

MPI task timing breakdown:
Section |  min time  |  avg time  |  max time  |%varavg| %total
---------------------------------------------------------------
Pair    | 1.8085     | 1.8085     | 1.8085     |   0.0 | 94.88
Neigh   | 0.0043161  | 0.0043161  | 0.0043161  |   0.0 |  0.23
Comm    | 0.0025077  | 0.0025077  | 0.0025077  |   0.0 |  0.13
Output  | 0.025777   | 0.025777   | 0.025777   |   0.0 |  1.35
Modify  | 0.063122   | 0.063122   | 0.063122   |   0.0 |  3.31
Other   |            | 0.001875   |            |       |  0.10

Nlocal:    41 ave 41 max 41 min
Histogram: 1 0 0 0 0 0 0 0 0 0
Nghost:    1323 ave 1323 max 1323 min
Histogram: 1 0 0 0 0 0 0 0 0 0
Neighs:    11610 ave 11610 max 11610 min
Histogram: 1 0 0 0 0 0 0 0 0 0

Total # of neighbors = 11610
Ave neighs/atom = 283.171
Neighbor list builds = 2
Dangerous builds not checked

Please see the log.cite file for references relevant to this simulation

Total wall time: 0:00:01
