 # LAMMPS data file written by Ovito Pyth
 
          41  atoms
           3  atom types
 
      0.000000000000       7.495103000000  xlo xhi
      0.000000000000       7.495178000000  ylo yhi
      0.000000000000      20.111915000000  zlo zhi
 
Masses
 
            1   63.54600000             # Cu
            2   58.69340000             # Ni
            3   15.99900000             # O
 
Atoms # charge
 
         1    1   0.000000        0.767476296978       2.664832497581       1.059482261999
         2    1   0.000000        4.513950322088       2.660170731004       1.049579774961
         3    1   0.000000        6.381114486415       0.792614236412       1.058495986939
         4    1   0.000000        0.769789431242       6.404429528546       1.049451898940
         5    1   0.000000        2.642307663889       4.531813559970       1.055368353469
         6    1   0.000000        4.509030857215       6.406616182974       1.059641552884
         7    1   0.000000        6.383965312714       4.527585920736       1.056055138785
         8    1   0.000000        0.767324034439       0.787321523847       2.726297193047
         9    1   0.000000        2.647245238922       2.661582743660       2.734292983948
        10    1   0.000000        4.512962390805       0.790083404521       2.743551312950
        11    1   0.000000        6.383796979051       2.660983008756       2.743394978799
        12    1   0.000000        2.638370725919       6.408695928921       2.733434440877
        13    1   0.000000        4.512315816983       4.526678875489       2.734403276363
        14    1   0.000000        6.386564404440       6.406572900944       2.726455985324
        15    1   0.000000        0.778347514223       2.662365536186       4.479938112517
        16    1   0.000000        2.629303206700       0.787055261300       4.481102830887
        17    1   0.000000        4.504167812205       2.669358065183       4.487265215646
        18    1   0.000000        6.400307600463       0.773769067988       4.474379287303
        19    1   0.000000        0.767128527985       6.406786432848       4.476720212573
        20    1   0.000000        2.637727802510       4.536080498815       4.485494237804
        21    1   0.000000        4.511672795403       6.395701211284       4.479945982323
        22    1   0.000000        6.386877013838       4.544219753649       4.481143370917
        23    1   0.000000        0.774560792032       0.788936805593       6.229079741371
        24    1   0.000000        4.505518479573       0.790701276484       6.180835215492
        25    1   0.000000        6.382905022823       2.667954891026       6.181024407119
        26    1   0.000000        0.773183314504       4.532882176977       6.228921904031
        27    1   0.000000        2.640822723564       6.400617300779       6.228807277639
        28    1   0.000000        0.790500510936       2.667903764581       7.844477523737
        29    1   0.000000        2.662344172056       0.825128750945       7.888998865223
        30    1   0.000000        0.768573532970       6.405058231854       7.892674108247
        31    1   0.000000        2.676757123088       4.496937055178       7.885889099826
        32    1   0.000000        4.506093895443       6.383445306899       7.843724278520
        33    1   0.000000        6.348211055147       4.511247858566       7.888939833716
        34    1   0.000000        2.646803908900       0.790038141836       1.056031773413
        35    1   0.000000        0.765191440374       4.535476062270       2.733311259086
        36    1   0.000000        6.385093111932       6.399360873648       6.228909337749
        37    1   0.000000        6.368934866163       0.804752186717       7.895851265828
        38    1   0.000000        4.501883659985       2.671322011769       7.837402426521
        39    2   0.000000        4.503166587517       4.530879417978       6.169709118686
        40    2   0.000000        2.642723886764       2.670569719440       6.169839128100
        41    3   0.000000        4.479867681835       2.694546296832       9.563623046451
