LAMMPS (3 Mar 2020)
# minimizing input file for REAX optimization
variable        dt equal 1.0

units           real
boundary        p p p
# needed for triclinic systems w large skew
box		tilt large

atom_style      charge
read_data       data.cu
  orthogonal box = (0 0 0) to (7.4951 7.49518 20.1119)
  1 by 1 by 1 MPI processor grid
  reading atoms ...
  41 atoms
  read_data CPU = 0.0014524 secs

mass		1 63.5463
mass		2 58.6934
mass		3 15.9999

pair_style	reax/c NULL safezone 2.4 mincap 200
pair_coeff	* * ffield.reax.temp Cu Ni O

neighbor	2 bin
neigh_modify	every 10 delay 0 check no

fix             reax all qeq/reax 1 0.0 10.0 1e-6 reax/c

timestep        ${dt}
timestep        1

thermo          1
thermo_style    custom step etotal pe atoms
thermo_modify   lost ignore

dump            3 all custom 1 forces.dat id x y z fx fy fz
dump_modify	3 sort id

# configuration output section
min_style       quickmin
minimize        1.0e-8 1.0e-6 1000 1000
WARNING: Using 'neigh_modify every 1 delay 0 check yes' setting during minimization (src/min.cpp:190)
Neighbor list info ...
  update every 1 steps, delay 0 steps, check yes
  max neighbors/atom: 2000, page size: 100000
  master list distance cutoff = 12
  ghost atom cutoff = 12
  binsize = 6, bins = 2 2 4
  2 neighbor lists, perpetual/occasional/extra = 2 0 0
  (1) pair reax/c, perpetual
      attributes: half, newton off, ghost
      pair build: half/bin/newtoff/ghost
      stencil: half/ghost/bin/3d/newtoff
      bin: standard
  (2) fix qeq/reax, perpetual, copy from (1)
      attributes: half, newton off, ghost
      pair build: copy
      stencil: none
      bin: none
Per MPI rank memory allocation (min/avg/max) = 62.75 | 62.75 | 62.75 Mbytes
Step TotEng PotEng Atoms 
       0   -3471.4396   -3471.4396       41 
       1   -3471.4146   -3471.4396       41 
       2   -3471.3893   -3471.4897       41 
       3   -3471.3635   -3471.5895       41 
       4   -3471.3372   -3471.7386       41 
       5   -3471.3105   -3471.9359       41 
       6   -3471.2834   -3472.1802       41 
       7    -3471.256     -3472.47       41 
       8   -3471.2283   -3472.8035       41 
       9   -3471.2004   -3473.1784       41 
      10   -3471.1724   -3473.5923       41 
      11   -3471.1443   -3474.0428       41 
      12   -3471.1164    -3474.527       41 
      13   -3471.0888   -3475.0419       41 
      14   -3471.0615   -3475.5843       41 
      15   -3471.0347   -3476.1512       41 
      16   -3471.0086   -3476.7392       41 
      17   -3470.9833   -3477.3451       41 
      18   -3470.9591   -3477.9654       41 
      19   -3470.9362   -3478.5971       41 
      20   -3470.9148   -3479.2368       41 
      21   -3470.8953   -3479.8816       41 
      22    -3470.878   -3480.5286       41 
      23   -3470.8632    -3481.175       41 
      24   -3470.8515   -3481.8183       41 
      25   -3470.8434   -3482.4562       41 
      26   -3470.8395   -3483.0867       41 
      27   -3470.8405   -3483.7082       41 
      28   -3470.8472    -3484.319       41 
      29   -3470.8604   -3484.9181       41 
      30   -3470.8808   -3485.5047       41 
      31   -3470.9091   -3486.0781       41 
      32   -3470.9457   -3486.6381       41 
      33    -3470.991   -3487.1846       41 
      34   -3471.0448   -3487.7179       41 
      35   -3471.1067   -3488.2383       41 
      36   -3471.1759   -3488.7463       41 
      37   -3471.2512   -3489.2425       41 
      38   -3471.3314   -3489.7279       41 
      39    -3471.408   -3490.2033       41 
      40   -3471.4926    -3490.669       41 
      41   -3471.5781    -3491.126       41 
      42   -3471.6546   -3491.5745       41 
      43   -3471.7355   -3492.0151       41 
      44   -3471.8141   -3492.4479       41 
      45    -3471.891   -3492.8735       41 
      46   -3471.9664   -3493.2921       41 
      47   -3472.0412   -3493.7039       41 
      48   -3472.1168   -3494.1093       41 
      49   -3472.1954   -3494.5083       41 
      50   -3472.2784   -3494.9011       41 
      51   -3472.3683   -3495.2878       41 
      52   -3472.4676   -3495.6686       41 
      53   -3472.5799   -3496.0436       41 
      54   -3472.7083    -3496.413       41 
      55   -3472.8566   -3496.7769       41 
      56   -3473.0294   -3497.1356       41 
      57   -3473.2329   -3497.4893       41 
      58   -3473.4715   -3497.8385       41 
      59   -3473.7543   -3498.1857       41 
      60   -3474.3657   -3498.5306       41 
      61   -3474.6387   -3498.8729       41 
      62   -3474.9668   -3499.2137       41 
      63    -3475.352   -3499.5541       41 
      64   -3475.7946   -3499.8956       41 
      65   -3476.2927   -3500.2401       41 
      66   -3476.8409   -3500.5903       41 
      67    -3477.264   -3500.9509       41 
      68   -3477.8712   -3501.3234       41 
      69   -3478.5136   -3501.7124       41 
      70   -3479.1391   -3502.1231       41 
      71   -3479.7136   -3502.5618       41 
      72   -3480.2114    -3503.036       41 
      73   -3480.6156   -3503.5545       41 
      74   -3480.9178   -3504.1279       41 
      75   -3481.1134   -3504.7695       41 
      76   -3481.1963   -3505.4972       41 
      77   -3481.1584    -3506.336       41 
      78   -3480.9473   -3507.3265       41 
      79   -3480.8036   -3508.5098       41 
      80   -3480.2167   -3509.9519       41 
      81   -3479.3645   -3511.7356       41 
      82   -3478.2402   -3513.9516       41 
      83   -3476.8817   -3516.6721       41 
      84    -3475.345   -3519.9032       41 
      85   -3473.7416   -3523.5289       41 
      86   -3472.3651    -3527.291       41 
      87   -3471.7492   -3530.8605       41 
      88   -3472.4128    -3533.985       41 
      89   -3473.9694   -3536.6308       41 
      90   -3475.6747   -3538.8774       41 
      91   -3474.0922   -3540.9092       41 
      92   -3472.2298     -3542.87       41 
      93   -3469.9348   -3544.9524       41 
      94   -3469.4047   -3547.4191       41 
      95   -3469.6896   -3550.5312       41 
      96   -3469.3853   -3554.3988       41 
      97   -3468.5694   -3558.8051       41 
      98     -3468.19   -3563.2346       41 
      99   -3469.9486   -3567.1803       41 
     100   -3475.4004   -3570.4292       41 
     101   -3483.3144   -3573.0688       41 
     102    -3489.971   -3575.3233       41 
     103    -3492.338   -3577.3608       41 
     104   -3492.5921   -3579.2469       41 
     105   -3492.3676   -3581.0586       41 
     106    -3492.112   -3582.8565       41 
     107   -3492.2019   -3584.6917       41 
     108   -3492.0378   -3586.6116       41 
     109   -3491.2799   -3588.6714       41 
     110   -3489.8425    -3590.967       41 
     111   -3487.6181   -3593.6995       41 
     112    -3484.001   -3597.2453       41 
     113   -3478.4594   -3602.0693       41 
     114   -3472.1457   -3608.2107       41 
     115    -3467.399   -3614.7161       41 
     116   -3467.1691   -3620.2229       41 
     117   -3472.5468    -3624.221       41 
     118   -3473.8791   -3627.0962       41 
     119    -3465.196   -3629.3213       41 
     120   -3461.9151   -3631.1297       41 
     121   -3464.3794   -3632.6421       41 
     122   -3466.3441   -3633.9297       41 
     123   -3465.8493   -3635.0308       41 
     124   -3462.9456   -3635.9556       41 
     125   -3456.6027   -3636.6995       41 
     126   -3445.6379   -3637.2644       41 
     127   -3435.9933   -3637.6655       41 
     128   -3431.3018   -3637.9122       41 
     129   -3556.5905   -3637.8959       41 
     130   -3637.8954   -3637.8959       41 
     131   -3637.8949   -3637.8968       41 
     132   -3637.8943   -3637.8987       41 
     133   -3637.8936   -3637.9015       41 
     134   -3637.8929   -3637.9052       41 
     135   -3637.8922   -3637.9097       41 
     136   -3637.8913   -3637.9149       41 
     137   -3637.8905   -3637.9208       41 
     138   -3637.8895   -3637.9272       41 
     139   -3637.8886    -3637.934       41 
     140   -3637.8876   -3637.9412       41 
     141   -3637.8866   -3637.9486       41 
     142   -3637.8856    -3637.956       41 
     143   -3637.8846   -3637.9635       41 
     144   -3637.8837   -3637.9707       41 
     145   -3637.8828   -3637.9777       41 
     146    -3637.882   -3637.9843       41 
     147   -3637.8814   -3637.9905       41 
     148    -3637.881   -3637.9962       41 
     149    -3637.881   -3638.0013       41 
     150   -3637.8816   -3638.0059       41 
     151    -3637.883     -3638.01       41 
     152   -3637.8853   -3638.0137       41 
     153   -3637.8882   -3638.0171       41 
     154    -3637.891   -3638.0202       41 
     155    -3637.893   -3638.0232       41 
     156   -3637.8941   -3638.0261       41 
     157   -3637.8945    -3638.029       41 
     158   -3637.8944   -3638.0318       41 
     159   -3637.8941   -3638.0346       41 
     160   -3637.8937   -3638.0373       41 
     161   -3637.8931   -3638.0399       41 
     162   -3637.8925   -3638.0426       41 
     163   -3637.8919   -3638.0451       41 
     164   -3637.8913   -3638.0477       41 
     165   -3637.8907   -3638.0501       41 
     166     -3637.89   -3638.0525       41 
     167   -3637.8894   -3638.0548       41 
     168   -3637.8888   -3638.0571       41 
     169   -3637.8881   -3638.0593       41 
     170   -3637.8875   -3638.0614       41 
     171   -3637.8869   -3638.0635       41 
     172   -3637.8864   -3638.0654       41 
     173   -3637.8858   -3638.0673       41 
     174   -3637.8852   -3638.0691       41 
     175   -3637.8847   -3638.0708       41 
     176   -3637.8842   -3638.0724       41 
     177   -3637.8837    -3638.074       41 
     178   -3637.8831   -3638.0754       41 
     179   -3637.8827   -3638.0768       41 
     180   -3637.8822    -3638.078       41 
     181   -3637.8818   -3638.0792       41 
     182   -3637.8813   -3638.0803       41 
     183   -3637.8809   -3638.0812       41 
     184   -3637.8804   -3638.0821       41 
     185   -3637.8801   -3638.0829       41 
     186   -3637.8797   -3638.0835       41 
     187   -3637.8792   -3638.0841       41 
     188    -3637.879   -3638.0846       41 
     189   -3637.8786   -3638.0849       41 
     190   -3637.8859   -3638.0852       41 
     191   -3638.0379   -3638.0852       41 
     192   -3638.0852   -3638.0852       41 
     193   -3638.0852   -3638.0852       41 
     194   -3638.0852   -3638.0852       41 
     195   -3638.0852   -3638.0852       41 
     196   -3638.0852   -3638.0852       41 
     197   -3638.0852   -3638.0852       41 
     198   -3638.0852   -3638.0853       41 
Loop time of 2.21167 on 1 procs for 198 steps with 41 atoms

98.2% CPU use with 1 MPI tasks x no OpenMP threads

Minimization stats:
  Stopping criterion = energy tolerance
  Energy initial, next-to-last, final = 
        -3471.43963404     -3638.08524583     -3638.08525242
  Force two-norm initial, final = 86.3414 0.267513
  Force max component initial, final = 29.666 0.107381
  Final line search alpha, max atom move = 0 0
  Iterations, force evaluations = 198 198

MPI task timing breakdown:
Section |  min time  |  avg time  |  max time  |%varavg| %total
---------------------------------------------------------------
Pair    | 2.1063     | 2.1063     | 2.1063     |   0.0 | 95.23
Neigh   | 0.0045815  | 0.0045815  | 0.0045815  |   0.0 |  0.21
Comm    | 0.0027125  | 0.0027125  | 0.0027125  |   0.0 |  0.12
Output  | 0.027795   | 0.027795   | 0.027795   |   0.0 |  1.26
Modify  | 0.068104   | 0.068104   | 0.068104   |   0.0 |  3.08
Other   |            | 0.002195   |            |       |  0.10

Nlocal:    41 ave 41 max 41 min
Histogram: 1 0 0 0 0 0 0 0 0 0
Nghost:    1388 ave 1388 max 1388 min
Histogram: 1 0 0 0 0 0 0 0 0 0
Neighs:    11622 ave 11622 max 11622 min
Histogram: 1 0 0 0 0 0 0 0 0 0

Total # of neighbors = 11622
Ave neighs/atom = 283.463
Neighbor list builds = 2
Dangerous builds not checked

Please see the log.cite file for references relevant to this simulation

Total wall time: 0:00:02
