# Cu-bulk/
 
           4  atoms
           1  atom types
 
      0.000000000000       3.620000000000  xlo xhi
      0.000000000000       3.620000000000  ylo yhi
      0.000000000000       3.620000000000  zlo zhi
 
Masses
 
            1   63.54600000             # Cu
 
Atoms # charge
 
         1    1   0.000000        0.000000000000       0.000000000000       0.000000000000
         2    1   0.000000        1.810000000000       1.810000000000       0.000000000000
         3    1   0.000000        0.000000000000       1.810000000000       1.810000000000
         4    1   0.000000        1.810000000000       0.000000000000       1.810000000000
