ITEM: TIMESTEP
0
ITEM: NUMBER OF ATOMS
4
ITEM: BOX BOUNDS pp pp pp
0.0000000000000000e+00 3.6200000000000001e+00
0.0000000000000000e+00 3.6200000000000001e+00
0.0000000000000000e+00 3.6200000000000001e+00
ITEM: ATOMS id x y z fx fy fz 
1 0 0 0 -1.42109e-14 -1.65978e-14 -2.42167e-14 
2 1.81 1.81 0 8.88178e-15 2.50494e-15 2.19824e-14 
3 0 1.81 1.81 -1.06581e-14 1.11716e-14 1.4537e-14 
4 1.81 0 1.81 1.33227e-14 -6.17562e-16 1.35586e-14 
ITEM: TIMESTEP
1
ITEM: NUMBER OF ATOMS
4
ITEM: BOX BOUNDS pp pp pp
0.0000000000000000e+00 3.6200000000000001e+00
0.0000000000000000e+00 3.6200000000000001e+00
0.0000000000000000e+00 3.6200000000000001e+00
ITEM: ATOMS id x y z fx fy fz 
1 0 0 0 -1.42109e-14 -1.65978e-14 -2.42167e-14 
2 1.81 1.81 0 8.88178e-15 2.50494e-15 2.19824e-14 
3 0 1.81 1.81 -1.06581e-14 1.11716e-14 1.4537e-14 
4 1.81 0 1.81 1.33227e-14 -6.17562e-16 1.35586e-14 
