 # LAMMPS data file written by Ovito Pyth
 
          41  atoms
           3  atom types
 
      0.000000000000       7.495103000000  xlo xhi
      0.000000000000       7.495178000000  ylo yhi
      0.000000000000      20.111915000000  zlo zhi
 
Masses
 
            1   63.54600000             # Cu
            2   58.69340000             # Ni
            3   15.99900000             # O
 
Atoms # charge
 
         1    1   0.000000        0.765335408211       2.664585800826       1.059119408706
         2    1   0.000000        4.512914420226       2.659531623907       1.061983042618
         3    1   0.000000        6.381268585615       0.790483536749       1.061566592149
         4    1   0.000000        0.765409161066       6.404009999626       1.054212960246
         5    1   0.000000        2.640665465424       4.529656342065       1.059465438027
         6    1   0.000000        4.512870840162       6.406055697112       1.060135647298
         7    1   0.000000        6.385151582938       4.529658487104       1.059421675713
         8    1   0.000000        0.765332397001       0.789886826749       2.732610538239
         9    1   0.000000        2.640039698435       2.660532846026       2.743520886237
        10    1   0.000000        4.512929251056       0.784335446714       2.749197167507
        11    1   0.000000        6.385790247787       2.660551648040       2.743492963565
        12    1   0.000000        2.641757747568       6.408035148604       2.735609997091
        13    1   0.000000        4.512844970146       4.530109228071       2.740292143881
        14    1   0.000000        6.383968485428       6.407932322329       2.735463312962
        15    1   0.000000        0.765443780906       2.663377850947       4.497124354352
        16    1   0.000000        2.629339512620       0.785787900924       4.484128386281
        17    1   0.000000        4.513045122303       2.666712564200       4.489733847633
        18    1   0.000000        6.396766118617       0.785729523113       4.484022280852
        19    1   0.000000        0.765388914381       6.407601295168       4.476687714552
        20    1   0.000000        2.638537063801       4.535034506873       4.488659738824
        21    1   0.000000        4.513242685156       6.393241910319       4.489772856935
        22    1   0.000000        6.387290388852       4.534962048574       4.488745010524
        23    1   0.000000        0.765542732978       0.794872031222       6.220963909683
        24    1   0.000000        4.513195757517       0.802860159798       6.182653230338
        25    1   0.000000        0.765263126433       4.528469415188       6.220613318877
        26    1   0.000000        2.640664038842       6.401413544395       6.226825122131
        27    1   0.000000        0.765265617484       2.667728403256       7.822283803886
        28    1   0.000000        2.657269047911       0.822323918357       7.878067451007
        29    1   0.000000        0.765573828412       6.406437877639       7.885359685519
        30    1   0.000000        2.671359044168       4.499668580335       7.871697951893
        31    1   0.000000        4.513034426801       6.382028760786       7.837990107221
        32    1   0.000000        6.353618843563       4.499846407765       7.871771152470
        33    1   0.000000        2.644525215623       0.790574199326       1.061488945461
        34    1   0.000000        0.765299332765       4.532668196463       2.738924331659
        35    1   0.000000        6.385564094463       6.401485666639       6.226992667775
        36    1   0.000000        6.369185563512       0.822098069210       7.878606169866
        37    1   0.000000        4.513108809640       2.677185870077       7.837032757736
        38    2   0.000000        6.378769028791       2.668526643950       6.169841126002
        39    2   0.000000        4.512832107358       4.514522751885       6.165911118838
        40    2   0.000000        2.647244647537       2.668681646702       6.169764502985
        41    3   0.000000        4.512234888506       2.693870302965       9.562190682462
