ITEM: TIMESTEP
0
ITEM: NUMBER OF ATOMS
41
ITEM: BOX BOUNDS pp pp pp
0.0000000000000000e+00 7.4951030000000003e+00
0.0000000000000000e+00 7.4951780000000001e+00
0.0000000000000000e+00 2.0111915000000000e+01
ITEM: ATOMS id x y z fx fy fz 
1 0.765335 2.66459 1.05912 0.00342982 -0.574364 -4.64343 
2 4.51291 2.65953 1.06198 0.000157872 -0.392513 -4.55553 
3 6.38127 0.790484 1.06157 0.380911 -0.39948 -4.43828 
4 0.765409 6.40401 1.05421 -0.00558937 0.631267 -3.25991 
5 2.64067 4.52966 1.05947 -0.0781287 0.422941 -4.4929 
6 4.51287 6.40606 1.06014 -0.00683324 0.250351 -4.46006 
7 6.38515 4.52966 1.05942 0.066328 0.418849 -4.49858 
8 0.765332 0.789887 2.73261 0.0195179 -1.15287 11.7452 
9 2.64004 2.66053 2.74352 -0.994692 -0.350025 9.63969 
10 4.51293 0.784335 2.7492 -0.00129265 -0.693858 10.5097 
11 6.38579 2.66055 2.74349 1.00075 -0.349042 9.64115 
12 2.64176 6.40804 2.73561 -0.942431 0.0366943 11.8586 
13 4.51284 4.53011 2.74029 0.0178567 1.48721 9.50343 
14 6.38397 6.40793 2.73546 0.990825 0.0397216 11.8758 
15 0.765444 2.66338 4.49712 -0.00879439 -1.32474 14.187 
16 2.62934 0.785788 4.48413 -0.111591 8.51183 5.88218 
17 4.51305 2.66671 4.48973 -0.0170554 11.7585 26.3666 
18 6.39677 0.78573 4.48402 0.103353 8.5193 5.88706 
19 0.765389 6.4076 4.47669 -0.00237462 0.87452 -0.482696 
20 2.63854 4.53503 4.48866 10.9086 -9.51439 16.0581 
21 4.51324 6.39324 4.48977 -0.0521598 -8.78097 6.79753 
22 6.38729 4.53496 4.48875 -10.904 -9.50449 16.0453 
23 0.765543 0.794872 6.22096 -0.0172615 9.58642 -16.5153 
24 4.5132 0.80286 6.18265 0.00936443 10.8356 -9.66055 
25 0.765263 4.52847 6.22061 -0.00715535 -9.3503 -17.5341 
26 2.64066 6.40141 6.22683 5.06268 -5.66371 -17.3989 
27 0.765266 2.66773 7.82228 0.00320201 -2.5978 -8.16724 
28 2.65727 0.822324 7.87807 -1.36211 10.0191 -5.45752 
29 0.765574 6.40644 7.88536 -0.00490794 1.71198 7.44813 
30 2.67136 4.49967 7.8717 13.1639 -11.5357 -15.2387 
31 4.51303 6.38203 7.83799 -0.0290758 -10.88 -0.708274 
32 6.35362 4.49985 7.87177 -13.0003 -11.5446 -15.2609 
33 2.64453 0.790574 1.06149 -0.376754 -0.41244 -4.42214 
34 0.765299 4.53267 2.73892 0.0113597 0.883839 10.8481 
35 6.38556 6.40149 6.22699 -5.0877 -5.65734 -17.4114 
36 6.36919 0.822098 7.87861 1.30432 10.0288 -5.49981 
37 4.51311 2.67719 7.83703 -0.023237 13.5547 -40.5115 
38 6.37877 2.66853 6.16984 12.1352 -14.0208 5.266 
39 4.51283 4.51452 6.16591 0.00331653 27.492 5.49209 
40 2.64724 2.66868 6.16976 -12.1428 -14.0301 5.26226 
41 4.51223 2.69387 9.56219 -0.00885429 1.66583 4.30361 
ITEM: TIMESTEP
1
ITEM: NUMBER OF ATOMS
41
ITEM: BOX BOUNDS pp pp pp
0.0000000000000000e+00 7.4951030000000003e+00
0.0000000000000000e+00 7.4951780000000001e+00
0.0000000000000000e+00 2.0111915000000000e+01
ITEM: ATOMS id x y z fx fy fz 
1 0.765335 2.66459 1.05912 0.00342984 -0.574365 -4.64343 
2 4.51291 2.65953 1.06198 0.00015785 -0.392514 -4.55553 
3 6.38127 0.790484 1.06157 0.380912 -0.39948 -4.43828 
4 0.765409 6.40401 1.05421 -0.00558936 0.631269 -3.25991 
5 2.64067 4.52966 1.05947 -0.0781294 0.422942 -4.4929 
6 4.51287 6.40606 1.06014 -0.00683325 0.250352 -4.46005 
7 6.38515 4.52966 1.05942 0.0663288 0.41885 -4.49858 
8 0.765332 0.789887 2.73261 0.0195179 -1.15287 11.7452 
9 2.64004 2.66053 2.74352 -0.99469 -0.350023 9.63968 
10 4.51293 0.784335 2.7492 -0.00129258 -0.693859 10.5097 
11 6.38579 2.66055 2.74349 1.00075 -0.34904 9.64114 
12 2.64176 6.40804 2.73561 -0.942433 0.0366932 11.8586 
13 4.51284 4.53011 2.74029 0.0178568 1.48721 9.50342 
14 6.38397 6.40793 2.73546 0.990827 0.0397206 11.8758 
15 0.765444 2.66338 4.49712 -0.00879406 -1.32475 14.1869 
16 2.62934 0.785788 4.48413 -0.111593 8.51184 5.88218 
17 4.51305 2.66671 4.48973 -0.0170559 11.7585 26.3664 
18 6.39677 0.78573 4.48402 0.103354 8.51931 5.88706 
19 0.765389 6.4076 4.47669 -0.00237475 0.874523 -0.482717 
20 2.63854 4.53503 4.48866 10.9086 -9.51439 16.058 
21 4.51324 6.39324 4.48977 -0.0521599 -8.78095 6.79751 
22 6.38729 4.53496 4.48875 -10.904 -9.50449 16.0453 
23 0.765543 0.794872 6.22096 -0.0172614 9.58636 -16.5153 
24 4.5132 0.80286 6.18265 0.00936437 10.8357 -9.66056 
25 0.765263 4.52847 6.22061 -0.0071552 -9.35029 -17.5341 
26 2.64066 6.40141 6.22683 5.06268 -5.6637 -17.3989 
27 0.765266 2.66773 7.82228 0.00320224 -2.5978 -8.16722 
28 2.65727 0.822324 7.87807 -1.36211 10.0191 -5.45751 
29 0.765574 6.40644 7.88536 -0.00490802 1.71198 7.44812 
30 2.67136 4.49967 7.8717 13.1639 -11.5357 -15.2386 
31 4.51303 6.38203 7.83799 -0.029076 -10.88 -0.70827 
32 6.35362 4.49985 7.87177 -13.0003 -11.5446 -15.2608 
33 2.64453 0.790574 1.06149 -0.376755 -0.41244 -4.42214 
34 0.765299 4.53267 2.73892 0.0113596 0.883848 10.8481 
35 6.38556 6.40149 6.22699 -5.0877 -5.65733 -17.4114 
36 6.36919 0.822098 7.87861 1.30433 10.0288 -5.4998 
37 4.51311 2.67719 7.83703 -0.0232376 13.5547 -40.5116 
38 6.37877 2.66853 6.16984 12.1352 -14.0208 5.26599 
39 4.51283 4.51452 6.16591 0.00331745 27.492 5.49208 
40 2.64724 2.66868 6.16976 -12.1428 -14.0301 5.26225 
41 4.51223 2.69387 9.56219 -0.00885415 1.66581 4.30416 
ITEM: TIMESTEP
2
ITEM: NUMBER OF ATOMS
41
ITEM: BOX BOUNDS pp pp pp
0.0000000000000000e+00 7.4951030000000003e+00
0.0000000000000000e+00 7.4951780000000001e+00
0.0000000000000000e+00 2.0111915000000000e+01
ITEM: ATOMS id x y z fx fy fz 
1 0.765335 2.66458 1.05909 0.00342664 -0.573948 -4.62887 
2 4.51291 2.65953 1.06195 0.000155865 -0.391906 -4.5413 
3 6.38127 0.790481 1.06154 0.380824 -0.399743 -4.42309 
4 0.765409 6.40401 1.05419 -0.00557491 0.630598 -3.24607 
5 2.64066 4.52966 1.05944 -0.0784102 0.422886 -4.47861 
6 4.51287 6.40606 1.06011 -0.00679959 0.250601 -4.44485 
7 6.38515 4.52966 1.05939 0.0666441 0.418807 -4.48427 
8 0.765333 0.789879 2.73269 0.0194863 -1.14696 11.7252 
9 2.64003 2.66053 2.74359 -0.989891 -0.347033 9.62607 
10 4.51293 0.784331 2.74927 -0.00127408 -0.687171 10.5011 
11 6.3858 2.66055 2.74356 0.995939 -0.346061 9.62753 
12 2.64175 6.40804 2.73569 -0.938552 0.0340104 11.8437 
13 4.51285 4.53012 2.74036 0.0178279 1.48015 9.48473 
14 6.38398 6.40793 2.73554 0.98684 0.0370588 11.8609 
15 0.765444 2.66337 4.49722 -0.00878106 -1.32035 14.1601 
16 2.62934 0.785845 4.48417 -0.106802 8.50155 5.8746 
17 4.51305 2.66679 4.48991 -0.0170354 11.7508 26.342 
18 6.39677 0.785787 4.48406 0.0985594 8.50901 5.87946 
19 0.765389 6.40761 4.47668 -0.00235564 0.869546 -0.478767 
20 2.63861 4.53497 4.48877 10.8946 -9.50985 16.0393 
21 4.51324 6.39318 4.48982 -0.0520763 -8.7607 6.78522 
22 6.38722 4.5349 4.48885 -10.89 -9.49996 16.0265 
23 0.765543 0.794936 6.22085 -0.0172474 9.55355 -16.4818 
24 4.5132 0.802933 6.18259 0.00930454 10.7982 -9.64284 
25 0.765263 4.52841 6.2205 -0.00707832 -9.3272 -17.494 
26 2.6407 6.40138 6.22671 5.04719 -5.64538 -17.3611 
27 0.765266 2.66771 7.82223 0.00322876 -2.59004 -8.15871 
28 2.65726 0.822391 7.87803 -1.359 10.0012 -5.46337 
29 0.765574 6.40645 7.88541 -0.00489608 1.70605 7.41282 
30 2.67145 4.49959 7.8716 13.1391 -11.5218 -15.2368 
31 4.51303 6.38196 7.83799 -0.029028 -10.8537 -0.715704 
32 6.35353 4.49977 7.87167 -12.9757 -11.5307 -15.259 
33 2.64452 0.790571 1.06146 -0.376663 -0.412681 -4.40699 
34 0.765299 4.53267 2.739 0.0113449 0.877982 10.84 
35 6.38553 6.40145 6.22688 -5.07223 -5.63906 -17.3737 
36 6.36919 0.822165 7.87857 1.30128 10.0109 -5.50561 
37 4.51311 2.67728 7.83676 -0.023245 13.5405 -40.4468 
38 6.37885 2.66843 6.16988 12.1238 -14.005 5.25362 
39 4.51283 4.51471 6.16595 0.00331938 27.4644 5.47923 
40 2.64716 2.66859 6.1698 -12.1314 -14.0143 5.24989 
41 4.51223 2.69388 9.56222 -0.00884118 1.66578 4.26022 
ITEM: TIMESTEP
3
ITEM: NUMBER OF ATOMS
41
ITEM: BOX BOUNDS pp pp pp
0.0000000000000000e+00 7.4951030000000003e+00
0.0000000000000000e+00 7.4951780000000001e+00
0.0000000000000000e+00 2.0111915000000000e+01
ITEM: ATOMS id x y z fx fy fz 
1 0.765335 2.66457 1.05903 0.00342027 -0.573112 -4.59977 
2 4.51291 2.65952 1.06189 0.000151896 -0.390705 -4.51288 
3 6.38128 0.790475 1.06148 0.380639 -0.400267 -4.39273 
4 0.765409 6.40402 1.05415 -0.00554605 0.629254 -3.21839 
5 2.64066 4.52966 1.05938 -0.0789773 0.422774 -4.45004 
6 4.51287 6.40606 1.06005 -0.00673241 0.251112 -4.41444 
7 6.38515 4.52967 1.05933 0.06728 0.418721 -4.45569 
8 0.765333 0.789864 2.73285 0.0194232 -1.13514 11.6852 
9 2.64002 2.66053 2.74371 -0.980305 -0.341044 9.59889 
10 4.51293 0.784322 2.74941 -0.00123715 -0.673808 10.4838 
11 6.38581 2.66054 2.74369 0.986332 -0.340092 9.60035 
12 2.64174 6.40804 2.73585 -0.930796 0.0286418 11.814 
13 4.51285 4.53014 2.74048 0.0177702 1.46604 9.4474 
14 6.38399 6.40793 2.7357 0.978873 0.0317323 11.8311 
15 0.765444 2.66335 4.49741 -0.008755 -1.31161 14.1064 
16 2.62934 0.785959 4.48425 -0.097253 8.48103 5.85947 
17 4.51304 2.66695 4.49026 -0.0169945 11.7353 26.293 
18 6.39677 0.785901 4.48414 0.0890034 8.48845 5.86428 
19 0.765389 6.40762 4.47668 -0.00231753 0.859593 -0.470868 
20 2.63876 4.53484 4.48898 10.8667 -9.50078 16.0019 
21 4.51324 6.39307 4.48991 -0.0519091 -8.72023 6.76061 
22 6.38707 4.53477 4.48907 -10.8622 -9.49088 15.9892 
23 0.765542 0.795065 6.22063 -0.0172195 9.48788 -16.4149 
24 4.5132 0.803078 6.18246 0.00918498 10.7233 -9.60742 
25 0.765263 4.52828 6.22026 -0.0069249 -9.28104 -17.414 
26 2.64077 6.4013 6.22648 5.01621 -5.60875 -17.2856 
27 0.765266 2.66768 7.82212 0.00328179 -2.5745 -8.14161 
28 2.65724 0.822526 7.87796 -1.35279 9.96547 -5.47504 
29 0.765574 6.40647 7.88551 -0.00487236 1.69426 7.34248 
30 2.67162 4.49944 7.87139 13.0895 -11.494 -15.2332 
31 4.51303 6.38181 7.83798 -0.0289321 -10.801 -0.730521 
32 6.35336 4.49961 7.87146 -12.9265 -11.5028 -15.2552 
33 2.64452 0.790566 1.0614 -0.376473 -0.413162 -4.3767 
34 0.7653 4.53269 2.73914 0.0113154 0.866277 10.8238 
35 6.38546 6.40137 6.22664 -5.04129 -5.60252 -17.2982 
36 6.36921 0.8223 7.8785 1.29517 9.97519 -5.51719 
37 4.51311 2.67746 7.83622 -0.0232596 13.5122 -40.3173 
38 6.37901 2.66824 6.16995 12.1008 -13.9736 5.22875 
39 4.51283 4.51508 6.16602 0.00332335 27.4092 5.45339 
40 2.647 2.6684 6.16987 -12.1083 -13.9829 5.22504 
41 4.51223 2.6939 9.56228 -0.00881534 1.66557 4.17266 
ITEM: TIMESTEP
4
ITEM: NUMBER OF ATOMS
41
ITEM: BOX BOUNDS pp pp pp
0.0000000000000000e+00 7.4951030000000003e+00
0.0000000000000000e+00 7.4951780000000001e+00
0.0000000000000000e+00 2.0111915000000000e+01
ITEM: ATOMS id x y z fx fy fz 
1 0.765336 2.66456 1.05893 0.00341073 -0.571834 -4.5562 
2 4.51291 2.65952 1.0618 0.000145988 -0.388923 -4.47037 
3 6.38128 0.790467 1.06139 0.380341 -0.40105 -4.34727 
4 0.765409 6.40404 1.05408 -0.00550292 0.627216 -3.17693 
5 2.64066 4.52967 1.05929 -0.0798487 0.422609 -4.40728 
6 4.51287 6.40607 1.05996 -0.00663207 0.251889 -4.36891 
7 6.38515 4.52968 1.05924 0.0682545 0.418595 -4.4129 
8 0.765333 0.789841 2.73308 0.0193286 -1.11748 11.6254 
9 2.64 2.66052 2.74391 -0.965957 -0.332101 9.55817 
10 4.51293 0.784308 2.74962 -0.00118214 -0.653819 10.4579 
11 6.38583 2.66054 2.74388 0.971955 -0.331178 9.55963 
12 2.64172 6.40804 2.73609 -0.919194 0.0206176 11.7695 
13 4.51285 4.53017 2.74067 0.0176838 1.44494 9.39156 
14 6.38401 6.40793 2.73594 0.966957 0.0237706 11.7865 
15 0.765443 2.66332 4.49769 -0.00871596 -1.29847 14.0261 
16 2.62934 0.786131 4.48437 -0.0829878 8.4502 5.83677 
17 4.51304 2.66719 4.4908 -0.0169331 11.7121 26.2195 
18 6.39677 0.786073 4.48426 0.0747274 8.45757 5.84151 
19 0.765389 6.40764 4.47667 -0.00226065 0.844748 -0.459035 
20 2.63898 4.53465 4.48931 10.8249 -9.48703 15.9458 
21 4.51324 6.39289 4.49005 -0.0516585 -8.65969 6.72373 
22 6.38685 4.53458 4.48939 -10.8204 -9.47713 15.9332 
23 0.765542 0.795256 6.2203 -0.0171777 9.38973 -16.3148 
24 4.5132 0.803295 6.18226 0.00900622 10.6114 -9.55442 
25 0.765263 4.52809 6.21991 -0.00669594 -9.21189 -17.2943 
26 2.64087 6.40119 6.22613 4.96986 -5.55392 -17.1728 
27 0.765266 2.66762 7.82195 0.00336107 -2.55122 -8.11597 
28 2.65721 0.822727 7.87785 -1.34345 9.912 -5.49236 
29 0.765574 6.40651 7.88566 -0.00483709 1.67665 7.23747 
30 2.67189 4.4992 7.87108 13.0152 -11.4523 -15.2277 
31 4.51303 6.38159 7.83796 -0.0287883 -10.7223 -0.752548 
32 6.3531 4.49938 7.87116 -12.8528 -11.4611 -15.2496 
33 2.64451 0.790558 1.06131 -0.376166 -0.41388 -4.33134 
34 0.7653 4.5327 2.73936 0.0112712 0.848766 10.7995 
35 6.38536 6.40126 6.22629 -4.995 -5.54782 -17.1853 
36 6.36924 0.822501 7.87838 1.286 9.92173 -5.53437 
37 4.51311 2.67773 7.8354 -0.0232805 13.4696 -40.1239 
38 6.37926 2.66796 6.17005 12.0664 -13.9268 5.19147 
39 4.51283 4.51563 6.16613 0.00332959 27.3265 5.41468 
40 2.64676 2.66812 6.16998 -12.0739 -13.936 5.1878 
41 4.51223 2.69394 9.56236 -0.00877695 1.6653 4.04207 
ITEM: TIMESTEP
5
ITEM: NUMBER OF ATOMS
41
ITEM: BOX BOUNDS pp pp pp
0.0000000000000000e+00 7.4951030000000003e+00
0.0000000000000000e+00 7.4951780000000001e+00
0.0000000000000000e+00 2.0111915000000000e+01
ITEM: ATOMS id x y z fx fy fz 
1 0.765336 2.66455 1.05881 0.00339802 -0.570088 -4.49827 
2 4.51291 2.65951 1.06168 0.000138245 -0.386595 -4.41393 
3 6.38129 0.790457 1.06127 0.3799 -0.402084 -4.2868 
4 0.765409 6.40405 1.054 -0.00544576 0.624459 -3.12175 
5 2.64066 4.52968 1.05917 -0.0810467 0.422386 -4.35045 
6 4.51287 6.40607 1.05984 -0.00649915 0.252957 -4.30837 
7 6.38516 4.52969 1.05912 0.0695894 0.418424 -4.35603 
8 0.765334 0.789811 2.7334 0.0192029 -1.09407 11.5459 
9 2.63997 2.66051 2.74417 -0.946884 -0.320228 9.50405 
10 4.51293 0.78429 2.7499 -0.00110965 -0.627269 10.4233 
11 6.38586 2.66053 2.74414 0.952842 -0.319345 9.50551 
12 2.6417 6.40804 2.73641 -0.903799 0.0099598 11.7104 
13 4.51285 4.53021 2.74093 0.0175688 1.41693 9.31747 
14 6.38403 6.40793 2.73626 0.951143 0.0131954 11.7273 
15 0.765443 2.66329 4.49807 -0.00866449 -1.28113 13.9191 
16 2.62933 0.786359 4.48452 -0.0641196 8.40908 5.80649 
17 4.51304 2.6675 4.4915 -0.0168506 11.681 26.1217 
18 6.39677 0.786301 4.48442 0.055845 8.41639 5.81112 
19 0.765389 6.40766 4.47666 -0.00218525 0.825051 -0.443284 
20 2.63927 4.53439 4.48974 10.7691 -9.46851 15.8711 
21 4.51324 6.39266 4.49023 -0.0513249 -8.57924 6.67449 
22 6.38656 4.53432 4.48982 -10.7647 -9.45861 15.8586 
23 0.765542 0.79551 6.21986 -0.0171221 9.25939 -16.1817 
24 4.5132 0.803581 6.18201 0.00876922 10.4628 -9.48406 
25 0.765263 4.52784 6.21944 -0.00639326 -9.12012 -17.1355 
26 2.641 6.40104 6.22566 4.90834 -5.4811 -17.023 
27 0.765266 2.66756 7.82174 0.00346579 -2.52043 -8.08181 
28 2.65718 0.822995 7.8777 -1.33104 9.841 -5.51506 
29 0.765574 6.40655 7.88585 -0.00479049 1.65325 7.09833 
30 2.67224 4.49889 7.87067 12.9164 -11.3968 -15.22 
31 4.51303 6.3813 7.83794 -0.0285965 -10.6177 -0.781523 
32 6.35275 4.49907 7.87074 -12.7548 -11.4054 -15.2418 
33 2.6445 0.790546 1.06119 -0.375715 -0.414829 -4.27102 
34 0.7653 4.53273 2.73965 0.0112125 0.825538 10.767 
35 6.38522 6.40111 6.22583 -4.93354 -5.47518 -17.0355 
36 6.36927 0.82277 7.87823 1.2738 9.85074 -5.55689 
37 4.51311 2.6781 7.83432 -0.0233051 13.4126 -39.8674 
38 6.37958 2.66759 6.17019 12.0207 -13.8644 5.1419 
39 4.51283 4.51637 6.16628 0.00333728 27.2165 5.36319 
40 2.64643 2.66774 6.17012 -12.0282 -13.8735 5.13827 
41 4.51223 2.69398 9.56247 -0.00872722 1.665 3.86898 
ITEM: TIMESTEP
6
ITEM: NUMBER OF ATOMS
41
ITEM: BOX BOUNDS pp pp pp
0.0000000000000000e+00 7.4951030000000003e+00
0.0000000000000000e+00 7.4951780000000001e+00
0.0000000000000000e+00 2.0111915000000000e+01
ITEM: ATOMS id x y z fx fy fz 
1 0.765336 2.66453 1.05866 0.00338223 -0.567841 -4.42615 
2 4.51291 2.65949 1.06153 0.000128683 -0.383768 -4.34378 
3 6.38131 0.790443 1.06113 0.379283 -0.403362 -4.21151 
4 0.765409 6.40407 1.05389 -0.00537484 0.620949 -3.05298 
5 2.64066 4.5297 1.05902 -0.0826078 0.422108 -4.27973 
6 4.51287 6.40608 1.05969 -0.00633449 0.254344 -4.23296 
7 6.38516 4.5297 1.05897 0.0713208 0.41821 -4.28526 
8 0.765334 0.789773 2.73379 0.0190462 -1.06503 11.4472 
9 2.63994 2.6605 2.74449 -0.923143 -0.305483 9.43667 
10 4.51293 0.784269 2.75026 -0.00102015 -0.594266 10.3801 
11 6.38589 2.66052 2.74446 0.929052 -0.304647 9.43813 
12 2.64166 6.40804 2.7368 -0.884667 -0.00329188 11.6368 
13 4.51285 4.53026 2.74124 0.0174257 1.38217 9.22547 
14 6.38407 6.40793 2.73666 0.93149 4.53321e-05 11.6535 
15 0.765443 2.66325 4.49855 -0.00859979 -1.25964 13.7858 
16 2.62933 0.786644 4.48472 -0.0407934 8.35776 5.76873 
17 4.51304 2.6679 4.49239 -0.0167485 11.6418 25.9996 
18 6.39677 0.786587 4.48461 0.0325019 8.36499 5.77324 
19 0.765389 6.40769 4.47664 -0.00209229 0.800612 -0.423626 
20 2.63963 4.53407 4.49028 10.6995 -9.44508 15.7781 
21 4.51324 6.39236 4.49045 -0.0509092 -8.47921 6.61301 
22 6.38619 4.534 4.49036 -10.6952 -9.43518 15.7657 
23 0.765541 0.795825 6.21931 -0.0170525 9.09745 -16.0162 
24 4.5132 0.803937 6.18168 0.00847472 10.278 -9.3965 
25 0.765262 4.52754 6.21886 -0.00601868 -9.00595 -16.9384 
26 2.64117 6.40085 6.22508 4.83187 -5.39056 -16.837 
27 0.765266 2.66747 7.82146 0.00359602 -2.48222 -8.03918 
28 2.65713 0.823329 7.87751 -1.31553 9.7528 -5.54285 
29 0.765573 6.40661 7.88609 -0.00473332 1.62424 6.92608 
30 2.67268 4.49851 7.87015 12.7933 -11.3273 -15.2101 
31 4.51303 6.38094 7.83791 -0.0283572 -10.4878 -0.81713 
32 6.35232 4.49868 7.87023 -12.6326 -11.3359 -15.2316 
33 2.64449 0.790532 1.06105 -0.375084 -0.416 -4.1959 
34 0.7653 4.53275 2.74002 0.011139 0.796708 10.7264 
35 6.38506 6.40092 6.22525 -4.85717 -5.38486 -16.8494 
36 6.36932 0.823104 7.87805 1.25856 9.76255 -5.58445 
37 4.51311 2.67855 7.83297 -0.0233342 13.341 -39.5492 
38 6.37999 2.66712 6.17037 11.9637 -13.7867 5.08007 
39 4.51283 4.51729 6.16646 0.00334909 27.0794 5.29898 
40 2.64602 2.66727 6.17029 -11.9711 -13.7957 5.0765 
41 4.51223 2.69404 9.5626 -0.00866538 1.66472 3.65402 
ITEM: TIMESTEP
7
ITEM: NUMBER OF ATOMS
41
ITEM: BOX BOUNDS pp pp pp
0.0000000000000000e+00 7.4951030000000003e+00
0.0000000000000000e+00 7.4951780000000001e+00
0.0000000000000000e+00 2.0111915000000000e+01
ITEM: ATOMS id x y z fx fy fz 
1 0.765336 2.6645 1.05848 0.00336339 -0.565045 -4.34004 
2 4.51291 2.65948 1.06135 0.000117451 -0.380494 -4.26022 
3 6.38132 0.790426 1.06095 0.378443 -0.404872 -4.12158 
4 0.765408 6.4041 1.05377 -0.00529055 0.616643 -2.97076 
5 2.64065 4.52972 1.05884 -0.0845748 0.421773 -4.19535 
6 4.51287 6.40609 1.05952 -0.00613912 0.256084 -4.14289 
7 6.38516 4.52972 1.0588 0.0734908 0.417952 -4.20081 
8 0.765335 0.78973 2.73426 0.018859 -1.03052 11.3296 
9 2.6399 2.66049 2.74488 -0.894804 -0.287925 9.35625 
10 4.51293 0.784245 2.75068 -0.000914606 -0.554934 10.3282 
11 6.38593 2.66051 2.74485 0.900653 -0.287146 9.3577 
12 2.64163 6.40804 2.73728 -0.86189 -0.019087 11.549 
13 4.51285 4.53031 2.74162 0.0172548 1.3408 9.11598 
14 6.3841 6.40793 2.73714 0.908093 -0.0156301 11.5656 
15 0.765443 2.66319 4.49911 -0.00852232 -1.23426 13.6261 
16 2.62933 0.786987 4.48496 -0.0131969 8.29627 5.72351 
17 4.51304 2.66838 4.49346 -0.0166263 11.5943 25.8535 
18 6.39678 0.786929 4.48485 0.00488595 8.30341 5.72788 
19 0.765389 6.40772 4.47662 -0.0019824 0.771527 -0.400102 
20 2.64007 4.53369 4.49092 10.6161 -9.41656 15.6669 
21 4.51324 6.39202 4.49073 -0.0504122 -8.35994 6.53929 
22 6.38576 4.53362 4.49101 -10.6119 -9.40665 15.6546 
23 0.76554 0.796197 6.21865 -0.0169689 8.90457 -15.8189 
24 4.5132 0.804357 6.1813 0.00812425 10.0579 -9.2921 
25 0.765262 4.52717 6.21817 -0.00557514 -8.86991 -16.7039 
26 2.64137 6.40063 6.22439 4.7408 -5.28265 -16.6157 
27 0.765266 2.66737 7.82113 0.00375084 -2.43698 -7.98819 
28 2.65708 0.823728 7.87728 -1.29697 9.64772 -5.57533 
29 0.765573 6.40667 7.88638 -0.00466617 1.5897 6.72185 
30 2.6732 4.49804 7.86953 12.6462 -11.2441 -15.1977 
31 4.51303 6.38051 7.83788 -0.0280705 -10.333 -0.858942 
32 6.3518 4.49822 7.8696 -12.4867 -11.2525 -15.2189 
33 2.64447 0.790515 1.06088 -0.374227 -0.417384 -4.10619 
34 0.765301 4.53279 2.74046 0.0110508 0.762443 10.6776 
35 6.38486 6.4007 6.22456 -4.7662 -5.27721 -16.628 
36 6.36937 0.823504 7.87782 1.24032 9.65748 -5.61666 
37 4.51311 2.6791 7.83135 -0.0233653 13.2543 -39.1705 
38 6.38048 2.66655 6.17058 11.8954 -13.6937 5.00631 
39 4.51283 4.5184 6.16668 0.00336491 26.9154 5.22233 
40 2.64553 2.6667 6.1705 -11.9027 -13.7026 5.00281 
41 4.51223 2.69411 9.56275 -0.00859226 1.66468 3.39789 
ITEM: TIMESTEP
8
ITEM: NUMBER OF ATOMS
41
ITEM: BOX BOUNDS pp pp pp
0.0000000000000000e+00 7.4951030000000003e+00
0.0000000000000000e+00 7.4951780000000001e+00
0.0000000000000000e+00 2.0111915000000000e+01
ITEM: ATOMS id x y z fx fy fz 
1 0.765336 2.66448 1.05827 0.00334155 -0.561647 -4.24022 
2 4.51291 2.65946 1.06115 0.000104684 -0.376839 -4.16362 
3 6.38134 0.790407 1.06075 0.377323 -0.406604 -4.01729 
4 0.765408 6.40413 1.05362 -0.00519335 0.611491 -2.87528 
5 2.64065 4.52974 1.05864 -0.0869955 0.421383 -4.09759 
6 4.51287 6.4061 1.05932 -0.00591428 0.258217 -4.03842 
7 6.38516 4.52974 1.0586 0.0761464 0.41765 -4.10298 
8 0.765336 0.78968 2.7348 0.0186419 -0.990744 11.1936 
9 2.63986 2.66047 2.74533 -0.861962 -0.267657 9.26303 
10 4.51293 0.784218 2.75118 -0.000794077 -0.509428 10.2676 
11 6.38597 2.66049 2.7453 0.867743 -0.266942 9.26448 
12 2.64159 6.40804 2.73783 -0.83558 -0.0373521 11.4473 
13 4.51285 4.53038 2.74206 0.0170567 1.29304 8.98954 
14 6.38415 6.40793 2.73769 0.881065 -0.0337587 11.4636 
15 0.765442 2.66314 4.49977 -0.00843238 -1.20505 13.4408 
16 2.62933 0.787386 4.48523 0.0184544 8.22462 5.67088 
17 4.51304 2.66893 4.4947 -0.0164841 11.5385 25.6836 
18 6.39678 0.787329 4.48513 -0.0267865 8.23164 5.67508 
19 0.765389 6.40776 4.4766 -0.00185647 0.738006 -0.372776 
20 2.64058 4.53323 4.49168 10.5189 -9.38259 15.5377 
21 4.51323 6.39161 4.49104 -0.049835 -8.22196 6.4534 
22 6.38525 4.53316 4.49176 -10.5148 -9.37268 15.5256 
23 0.765539 0.796625 6.21789 -0.0168716 8.68174 -15.5905 
24 4.5132 0.804841 6.18085 0.00771963 9.80349 -9.17125 
25 0.765262 4.52674 6.21736 -0.00506608 -8.71241 -16.4332 
26 2.64159 6.40038 6.2236 4.63551 -5.1578 -16.36 
27 0.765266 2.66725 7.82075 0.00392915 -2.3848 -7.92888 
28 2.65702 0.824192 7.87702 -1.27537 9.52624 -5.61197 
29 0.765573 6.40675 7.8867 -0.00458976 1.54987 6.487 
30 2.67381 4.4975 7.8688 12.4755 -11.1471 -15.1824 
31 4.51303 6.38002 7.83784 -0.0277367 -10.154 -0.906437 
32 6.3512 4.49768 7.86887 -12.3174 -11.1553 -15.2033 
33 2.64445 0.790495 1.06068 -0.373088 -0.41897 -4.00213 
34 0.765301 4.53282 2.74097 0.0109481 0.722908 10.6205 
35 6.38463 6.40045 6.22376 -4.66103 -5.15266 -16.3722 
36 6.36943 0.823968 7.87755 1.2191 9.53602 -5.65298 
37 4.5131 2.67973 7.82946 -0.0233949 13.1527 -38.7338 
38 6.38105 2.66589 6.17082 11.816 -13.5861 4.92058 
39 4.51283 4.5197 6.16693 0.00338479 26.725 5.13328 
40 2.64496 2.66605 6.17074 -11.8232 -13.5949 4.91716 
41 4.51223 2.69419 9.56291 -0.00850937 1.66471 3.10247 
ITEM: TIMESTEP
9
ITEM: NUMBER OF ATOMS
41
ITEM: BOX BOUNDS pp pp pp
0.0000000000000000e+00 7.4951030000000003e+00
0.0000000000000000e+00 7.4951780000000001e+00
0.0000000000000000e+00 2.0111915000000000e+01
ITEM: ATOMS id x y z fx fy fz 
1 0.765336 2.66445 1.05803 0.00331674 -0.557588 -4.12699 
2 4.51291 2.65944 1.06092 9.06046e-05 -0.372874 -4.05439 
3 6.38136 0.790384 1.06053 0.375862 -0.408543 -3.89892 
4 0.765408 6.40416 1.05346 -0.00508382 0.605434 -2.76675 
5 2.64065 4.52976 1.05841 -0.0899264 0.420937 -3.98679 
6 4.51287 6.40612 1.0591 -0.00566138 0.260787 -3.91983 
7 6.38517 4.52976 1.05837 0.0793432 0.417303 -3.99209 
8 0.765337 0.789625 2.73542 0.0183955 -0.945941 11.0399 
9 2.63981 2.66046 2.74584 -0.824721 -0.244772 9.15731 
10 4.51293 0.78419 2.75175 -0.000659959 -0.457934 10.1985 
11 6.38602 2.66048 2.74581 0.830425 -0.244128 9.15876 
12 2.64154 6.40803 2.73847 -0.805866 -0.0580154 11.332 
13 4.51285 4.53045 2.74256 0.0168316 1.23911 8.8468 
14 6.3842 6.40793 2.73833 0.85054 -0.0542704 11.3481 
15 0.765442 2.66307 4.50051 -0.00833086 -1.17235 13.23 
16 2.62933 0.787841 4.48555 0.0539004 8.14282 5.61085 
17 4.51304 2.66957 4.49612 -0.0163208 11.474 25.49 
18 6.39677 0.787784 4.48544 -0.0622551 8.14972 5.61487 
19 0.765388 6.4078 4.47658 -0.00171533 0.700201 -0.34173 
20 2.64117 4.53271 4.49254 10.408 -9.34289 15.3908 
21 4.51323 6.39116 4.4914 -0.0491787 -8.06578 6.35539 
22 6.38466 4.53264 4.49262 -10.4041 -9.33298 15.3788 
23 0.765539 0.797106 6.21703 -0.0167611 8.42993 -15.3319 
24 4.5132 0.805384 6.18035 0.0072631 9.51591 -9.03443 
25 0.765262 4.52626 6.21645 -0.00449574 -8.53419 -16.1277 
26 2.64185 6.40009 6.22269 4.51649 -5.01654 -16.0713 
27 0.765267 2.66712 7.82031 0.00412939 -2.32619 -7.86128 
28 2.65695 0.824719 7.87671 -1.25077 9.38885 -5.65217 
29 0.765573 6.40684 7.88706 -0.00450481 1.50487 6.22304 
30 2.6745 4.49689 7.86796 12.2818 -11.0364 -15.1639 
31 4.51303 6.37945 7.83779 -0.027356 -9.9515 -0.958989 
32 6.35052 4.49706 7.86803 -12.1252 -11.0445 -15.1844 
33 2.64443 0.790472 1.06046 -0.371604 -0.420743 -3.88404 
34 0.765302 4.53286 2.74156 0.0108312 0.678322 10.5553 
35 6.38437 6.40016 6.22285 -4.54213 -5.01173 -16.0834 
36 6.36949 0.824496 7.87723 1.19493 9.39864 -5.69283 
37 4.5131 2.68046 7.82732 -0.0234185 13.0353 -38.2413 
38 6.38171 2.66514 6.17109 11.7259 -13.4637 4.82313 
39 4.51283 4.52117 6.16721 0.00340772 26.5086 5.03208 
40 2.6443 2.66529 6.17101 -11.733 -13.4724 4.8198 
41 4.51223 2.69428 9.56309 -0.0084188 1.66518 2.76957 
ITEM: TIMESTEP
10
ITEM: NUMBER OF ATOMS
41
ITEM: BOX BOUNDS pp pp pp
0.0000000000000000e+00 7.4951030000000003e+00
0.0000000000000000e+00 7.4951780000000001e+00
0.0000000000000000e+00 2.0111915000000000e+01
ITEM: ATOMS id x y z fx fy fz 
1 0.765336 2.66441 1.05777 0.0032891 -0.552804 -4.00072 
2 4.51291 2.65941 1.06066 7.53246e-05 -0.368685 -3.93304 
3 6.38139 0.790359 1.06029 0.373992 -0.410671 -3.76683 
4 0.765408 6.4042 1.05329 -0.00496253 0.598411 -2.64544 
5 2.64064 4.52979 1.05816 -0.09343 0.420433 -3.86334 
6 4.51287 6.40613 1.05885 -0.00538211 0.263847 -3.78749 
7 6.38517 4.52979 1.05812 0.0831428 0.416909 -3.86855 
8 0.765338 0.789566 2.73612 0.0181203 -0.896383 10.8691 
9 2.63976 2.66044 2.74641 -0.783199 -0.219386 9.03943 
10 4.51293 0.784161 2.75239 -0.000513422 -0.400668 10.1206 
11 6.38607 2.66046 2.74639 0.788818 -0.218819 9.04087 
12 2.64149 6.40803 2.73918 -0.772893 -0.0809895 11.2036 
13 4.51285 4.53053 2.74311 0.0165806 1.17931 8.68847 
14 6.38425 6.40793 2.73904 0.816665 -0.0770793 11.2194 
15 0.765441 2.66299 4.50134 -0.00821701 -1.13639 12.9945 
16 2.62933 0.788352 4.4859 0.09282 8.05102 5.54357 
17 4.51304 2.67029 4.49772 -0.0161383 11.4005 25.2733 
18 6.39677 0.788296 4.48579 -0.101198 8.05777 5.54739 
19 0.765388 6.40784 4.47656 -0.00156065 0.658333 -0.307063 
20 2.64182 4.53213 4.4935 10.2836 -9.29713 15.2266 
21 4.51323 6.39065 4.4918 -0.0484453 -7.89205 6.24543 
22 6.38401 4.53206 4.49358 -10.2798 -9.28722 15.2149 
23 0.765537 0.797635 6.21607 -0.0166368 8.15035 -15.044 
24 4.5132 0.805981 6.17978 0.00675668 9.19646 -8.88212 
25 0.765261 4.52572 6.21544 -0.0038681 -8.3359 -15.789 
26 2.64213 6.39977 6.22168 4.38426 -4.85946 -15.7509 
27 0.765267 2.66697 7.81982 0.00435111 -2.26147 -7.78555 
28 2.65687 0.825309 7.87635 -1.2232 9.2362 -5.69531 
29 0.765572 6.40693 7.88745 -0.00441263 1.45498 5.93186 
30 2.67527 4.49619 7.86701 12.0655 -10.9121 -15.1417 
31 4.51303 6.37883 7.83773 -0.0269291 -9.72649 -1.01596 
32 6.34975 4.49637 7.86708 -11.9106 -10.92 -15.1619 
33 2.64441 0.790446 1.06021 -0.369709 -0.422688 -3.75226 
34 0.765303 4.53291 2.74222 0.0106998 0.628943 10.4817 
35 6.38409 6.39985 6.22184 -4.41005 -4.85502 -15.7629 
36 6.36957 0.825086 7.87688 1.16784 9.246 -5.73556 
37 4.5131 2.68128 7.82492 -0.0234355 12.902 -37.6959 
38 6.38244 2.66429 6.17139 11.625 -13.3271 4.7141 
39 4.51283 4.52284 6.16753 0.00343725 26.2667 4.91886 
40 2.64357 2.66445 6.17131 -11.632 -13.3356 4.71087 
41 4.51223 2.69438 9.56326 -0.0083202 1.66607 2.40097 
ITEM: TIMESTEP
11
ITEM: NUMBER OF ATOMS
41
ITEM: BOX BOUNDS pp pp pp
0.0000000000000000e+00 7.4951030000000003e+00
0.0000000000000000e+00 7.4951780000000001e+00
0.0000000000000000e+00 2.0111915000000000e+01
ITEM: ATOMS id x y z fx fy fz 
1 0.765337 2.66437 1.05749 0.00325866 -0.547223 -3.8618 
2 4.51291 2.65939 1.06038 5.91379e-05 -0.36436 -3.8001 
3 6.38141 0.79033 1.06002 0.371635 -0.412971 -3.62143 
4 0.765407 6.40424 1.0531 -0.0048302 0.590353 -2.51165 
5 2.64063 4.52982 1.05789 -0.0975654 0.419872 -3.72768 
6 4.51287 6.40615 1.05858 -0.00507827 0.267451 -3.64177 
7 6.38518 4.52982 1.05785 0.087603 0.416468 -3.73278 
8 0.76534 0.789503 2.73688 0.0178174 -0.842382 10.682 
9 2.63971 2.66043 2.74705 -0.737546 -0.191623 8.9098 
10 4.51293 0.784133 2.7531 -0.000356263 -0.337863 10.0342 
11 6.38613 2.66045 2.74702 0.743071 -0.191139 8.91124 
12 2.64144 6.40802 2.73997 -0.736836 -0.106176 11.0624 
13 4.51285 4.53061 2.74373 0.0163041 1.11394 8.51537 
14 6.38431 6.40792 2.73983 0.77962 -0.102089 11.078 
15 0.765441 2.66291 4.50226 -0.0080924 -1.09749 12.7346 
16 2.62934 0.788919 4.48629 0.134873 7.94932 5.46914 
17 4.51304 2.6711 4.4995 -0.0159347 11.3175 25.0334 
18 6.39676 0.788864 4.48618 -0.143274 7.95592 5.47273 
19 0.765388 6.40789 4.47654 -0.00139336 0.612636 -0.268858 
20 2.64254 4.53147 4.49457 10.1457 -9.24488 15.0456 
21 4.51322 6.3901 4.49224 -0.0476362 -7.70151 6.1236 
22 6.38329 4.5314 4.49466 -10.1421 -9.23496 15.034 
23 0.765536 0.798209 6.21501 -0.0164995 7.8443 -14.7282 
24 4.5132 0.806629 6.17915 0.00620337 8.84658 -8.71494 
25 0.765261 4.52513 6.21433 -0.00318873 -8.11835 -15.4188 
26 2.64244 6.39943 6.22057 4.23945 -4.68723 -15.4005 
27 0.765267 2.66681 7.81927 0.00459179 -2.1911 -7.70177 
28 2.65678 0.82596 7.87595 -1.19273 9.06888 -5.74065 
29 0.765572 6.40703 7.88787 -0.00431399 1.40043 5.61548 
30 2.67612 4.49542 7.86594 11.8272 -10.7743 -15.1155 
31 4.51302 6.37814 7.83766 -0.0264563 -9.47992 -1.07662 
32 6.34892 4.4956 7.86601 -11.6742 -10.782 -15.1352 
33 2.64438 0.790416 1.05995 -0.367324 -0.424787 -3.60718 
34 0.765304 4.53295 2.74296 0.0105543 0.575061 10.3999 
35 6.38378 6.39951 6.22073 -4.26538 -4.68319 -15.4124 
36 6.36965 0.825737 7.87647 1.13791 9.07871 -5.78046 
37 4.5131 2.68219 7.82226 -0.0234388 12.7525 -37.0996 
38 6.38326 2.66336 6.17172 11.5135 -13.1765 4.59399 
39 4.51283 4.52469 6.16787 0.0034702 25.9996 4.79416 