LAMMPS (3 Mar 2020)
# minimizing input file for REAX optimization
variable        dt equal 1.0

units           real
boundary        p p p
# needed for triclinic systems w large skew
box		tilt large

atom_style      charge
read_data       data.cu
  orthogonal box = (0 0 0) to (7.4951 7.49518 20.1119)
  1 by 1 by 1 MPI processor grid
  reading atoms ...
  41 atoms
  read_data CPU = 0.0008245 secs

mass		1 63.5463
mass		2 58.6934
mass		3 15.9999

pair_style	reax/c NULL safezone 2.4 mincap 200
pair_coeff	* * ffield.reax.temp Cu Ni O

neighbor	2 bin
neigh_modify	every 10 delay 0 check no

fix             reax all qeq/reax 1 0.0 10.0 1e-6 reax/c

timestep        ${dt}
timestep        1

thermo          1
thermo_style    custom step etotal pe atoms
thermo_modify   lost ignore

dump            3 all custom 1 forces.dat id x y z fx fy fz
dump_modify	3 sort id

# configuration output section
min_style       quickmin
minimize        1.0e-8 1.0e-6 1000 1000
WARNING: Using 'neigh_modify every 1 delay 0 check yes' setting during minimization (src/min.cpp:190)
Neighbor list info ...
  update every 1 steps, delay 0 steps, check yes
  max neighbors/atom: 2000, page size: 100000
  master list distance cutoff = 12
  ghost atom cutoff = 12
  binsize = 6, bins = 2 2 4
  2 neighbor lists, perpetual/occasional/extra = 2 0 0
  (1) pair reax/c, perpetual
      attributes: half, newton off, ghost
      pair build: half/bin/newtoff/ghost
      stencil: half/ghost/bin/3d/newtoff
      bin: standard
  (2) fix qeq/reax, perpetual, copy from (1)
      attributes: half, newton off, ghost
      pair build: copy
      stencil: none
      bin: none
Per MPI rank memory allocation (min/avg/max) = 61.37 | 61.37 | 61.37 Mbytes
Step TotEng PotEng Atoms 
       0   -3582.0639   -3582.0639       41 
       1   -3582.0301   -3582.0639       41 
       2   -3581.9962   -3582.1313       41 
       3   -3581.9618   -3582.2657       41 
       4   -3581.9271   -3582.4666       41 
       5    -3581.892   -3582.7327       41 
       6   -3581.8565   -3583.0625       41 
       7   -3581.8208   -3583.4542       41 
       8    -3581.785   -3583.9056       41 
       9   -3581.7491    -3584.414       41 
      10   -3581.7132   -3584.9766       41 
      11   -3581.6774   -3585.5904       41 
      12   -3581.6419   -3586.2519       41 
      13   -3581.6068   -3586.9576       41 
      14   -3581.5722   -3587.7037       41 
      15   -3581.5384   -3588.4865       41 
      16   -3581.5054   -3589.3021       41 
      17   -3581.4735   -3590.1464       41 
      18   -3581.4428   -3591.0156       41 
      19   -3581.4137   -3591.9059       41 
      20   -3581.3863   -3592.8133       41 
      21   -3581.3609   -3593.7343       41 
      22   -3581.3379   -3594.6654       41 
      23   -3581.3177   -3595.6032       41 
      24   -3581.3007   -3596.5447       41 
      25   -3581.2875   -3597.4871       41 
      26   -3581.2784   -3598.4277       41 
      27   -3581.2743   -3599.3643       41 
      28   -3581.2757    -3600.295       41 
      29   -3581.3157   -3601.2187       41 
      30   -3581.3301   -3602.1341       41 
      31   -3581.3992   -3603.0401       41 
      32   -3581.4277   -3603.9358       41 
      33   -3581.4648   -3604.8208       41 
      34    -3581.511   -3605.6945       41 
      35   -3581.5663    -3606.557       41 
      36    -3581.631   -3607.4082       41 
      37   -3581.7051   -3608.2488       41 
      38   -3581.7778   -3609.0799       41 
      39   -3581.8697   -3609.9016       41 
      40   -3581.9577    -3610.714       41 
      41   -3582.0615   -3611.5171       41 
      42   -3582.1717   -3612.3114       41 
      43    -3582.288   -3613.0975       41 
      44   -3582.4098   -3613.8757       41 
      45   -3582.5382   -3614.6466       41 
      46   -3582.6743   -3615.4105       41 
      47   -3582.8186   -3616.1677       41 
      48   -3582.9765   -3616.9217       41 
      49   -3583.0979   -3617.6703       41 
      50   -3583.2674   -3618.4137       41 
      51   -3583.4557   -3619.1522       41 
      52    -3583.665   -3619.8863       41 
      53   -3583.8995   -3620.6165       41 
      54    -3584.162   -3621.3439       41 
      55   -3584.4068   -3622.0695       41 
      56   -3584.7449   -3622.7936       41 
      57   -3585.1101   -3623.5173       41 
      58   -3585.5021    -3624.242       41 
      59   -3585.9169   -3624.9695       41 
      60   -3586.3459    -3625.702       41 
      61   -3586.7794   -3626.4421       41 
      62   -3587.1993   -3627.1929       41 
      63   -3587.5836   -3627.9582       41 
      64   -3587.8762   -3628.7424       41 
      65   -3588.1133   -3629.5501       41 
      66   -3588.2261   -3630.3867       41 
      67   -3588.1885   -3631.2581       41 
      68   -3587.9815   -3632.1711       41 
      69   -3587.5928   -3633.1328       41 
      70   -3587.0188   -3634.1512       41 
      71   -3586.2451   -3635.2357       41 
      72   -3585.3254   -3636.3963       41 
      73   -3584.3107   -3637.6456       41 
      74   -3583.2197   -3639.0001       41 
      75   -3582.1276   -3640.4834       41 
      76   -3581.1363   -3642.1301       41 
      77   -3580.3777   -3643.9928       41 
      78   -3579.9806   -3646.1501       41 
      79   -3579.9674   -3648.7113       41 
      80    -3580.124   -3651.8029       41 
      81   -3580.0173   -3655.5198       41 
      82   -3579.2414   -3659.8394       41 
      83   -3577.5856   -3664.5828       41 
      84   -3575.9721   -3669.4057       41 
      85   -3572.9505   -3674.0469       41 
      86   -3569.8366   -3678.5159       41 
      87   -3567.2902     -3683.02       41 
      88   -3565.5338   -3687.6558       41 
      89   -3563.6969   -3692.1556       41 
      90   -3561.5778   -3696.1354       41 
      91   -3560.6149    -3699.375       41 
      92   -3561.3883    -3701.933       41 
      93    -3565.021   -3703.9703       41 
      94   -3568.1386   -3705.6412       41 
      95   -3571.5439   -3707.0607       41 
      96    -3574.736   -3708.3057       41 
      97   -3577.8865   -3709.4272       41 
      98   -3581.7704   -3710.4626       41 
      99   -3586.8161   -3711.4445       41 
     100    -3593.073   -3712.4065       41 
     101   -3599.7968   -3713.3842       41 
     102   -3605.9487    -3714.414       41 
     103   -3611.3044   -3715.5391       41 
     104   -3616.5967   -3716.8046       41 
     105   -3621.4529   -3718.3005       41 
     106   -3626.4786   -3720.2547       41 
     107    -3630.356   -3723.0513       41 
     108   -3629.2958   -3727.2414       41 
     109   -3625.9056   -3733.1069       41 
     110   -3623.0198   -3739.9577       41 
     111    -3624.572   -3746.2684       41 
     112   -3635.0612   -3751.1236       41 
     113   -3641.8054   -3754.8463       41 
     114   -3634.4538   -3757.9975       41 
     115   -3633.2039   -3760.8328       41 
     116   -3634.8211   -3763.5401       41 
     117   -3634.7151   -3766.3721       41 
     118   -3633.6686   -3769.7369       41 
     119   -3631.1037   -3774.2531       41 
     120   -3626.5477   -3780.3903       41 
     121   -3620.7239   -3787.5777       41 
     122   -3615.3181   -3794.1439       41 
     123   -3612.8579   -3798.8891       41 
     124   -3612.1264   -3802.0295       41 
     125   -3606.8935    -3804.272       41 
     126   -3602.6825   -3806.0558       41 
     127   -3602.0333   -3807.5445       41 
     128   -3601.0352    -3808.804       41 
     129   -3599.9417   -3809.8707       41 
     130   -3598.5794   -3810.7704       41 
     131   -3597.2041   -3811.5246       41 
     132   -3595.6444   -3812.1505       41 
     133   -3595.1261   -3812.6582       41 
     134   -3597.0699   -3813.0518       41 
     135   -3619.1756   -3813.2957       41 
     136   -3784.5205   -3813.3649       41 
     137   -3813.3648   -3813.3649       41 
     138   -3813.3647   -3813.3652       41 
     139   -3813.3645   -3813.3657       41 
     140   -3813.3643   -3813.3665       41 
     141    -3813.364   -3813.3675       41 
     142   -3813.3638   -3813.3688       41 
     143   -3813.3634   -3813.3702       41 
     144   -3813.3631   -3813.3719       41 
     145   -3813.3628   -3813.3738       41 
     146   -3813.3624   -3813.3759       41 
     147   -3813.3619   -3813.3781       41 
     148   -3813.3615   -3813.3805       41 
     149    -3813.361    -3813.383       41 
     150   -3813.3605   -3813.3857       41 
     151     -3813.36   -3813.3885       41 
     152   -3813.3595   -3813.3914       41 
     153    -3813.359   -3813.3943       41 
     154   -3813.3584   -3813.3974       41 
     155   -3813.3579   -3813.4006       41 
     156   -3813.3573   -3813.4038       41 
     157   -3813.3566   -3813.4072       41 
     158    -3813.356   -3813.4106       41 
     159   -3813.3553   -3813.4141       41 
     160   -3813.3545   -3813.4177       41 
     161   -3813.3537   -3813.4214       41 
     162   -3813.3528   -3813.4252       41 
     163   -3813.3519    -3813.429       41 
     164    -3813.351    -3813.433       41 
     165     -3813.35    -3813.437       41 
     166    -3813.349   -3813.4411       41 
     167   -3813.3479   -3813.4453       41 
     168   -3813.3468   -3813.4495       41 
     169   -3813.3457   -3813.4538       41 
     170   -3813.3445   -3813.4582       41 
     171   -3813.3434   -3813.4626       41 
     172   -3813.3422   -3813.4671       41 
     173    -3813.341   -3813.4716       41 
     174   -3813.3398   -3813.4762       41 
     175   -3813.3385   -3813.4808       41 
     176   -3813.3373   -3813.4854       41 
     177    -3813.336   -3813.4901       41 
     178   -3813.3348   -3813.4948       41 
     179   -3813.3335   -3813.4995       41 
     180   -3813.3322   -3813.5042       41 
     181   -3813.3309   -3813.5089       41 
     182   -3813.3297   -3813.5137       41 
     183   -3813.3284   -3813.5184       41 
     184   -3813.3271   -3813.5231       41 
     185   -3813.3258   -3813.5278       41 
     186   -3813.3245   -3813.5325       41 
     187   -3813.3233   -3813.5372       41 
     188    -3813.322   -3813.5418       41 
     189   -3813.3207   -3813.5464       41 
     190   -3813.3195   -3813.5509       41 
     191   -3813.3182   -3813.5554       41 
     192    -3813.317   -3813.5599       41 
     193   -3813.3158   -3813.5643       41 
     194   -3813.3146   -3813.5686       41 
     195   -3813.3134   -3813.5729       41 
     196   -3813.3122   -3813.5771       41 
     197    -3813.311   -3813.5813       41 
     198   -3813.3099   -3813.5853       41 
     199   -3813.3088   -3813.5893       41 
     200   -3813.3076   -3813.5932       41 
     201   -3813.3065    -3813.597       41 
     202   -3813.3055   -3813.6007       41 
     203   -3813.3044   -3813.6043       41 
     204   -3813.3034   -3813.6078       41 
     205   -3813.3023   -3813.6112       41 
     206   -3813.3014   -3813.6145       41 
     207   -3813.3004   -3813.6177       41 
     208   -3813.2994   -3813.6207       41 
     209   -3813.2985   -3813.6236       41 
     210   -3813.2976   -3813.6264       41 
     211   -3813.2967   -3813.6291       41 
     212   -3813.2959   -3813.6317       41 
     213   -3813.2951   -3813.6341       41 
     214   -3813.2943   -3813.6364       41 
     215   -3813.2936   -3813.6385       41 
     216   -3813.2928   -3813.6406       41 
     217   -3813.2921   -3813.6424       41 
     218   -3813.2914   -3813.6442       41 
     219   -3813.2908   -3813.6458       41 
     220   -3813.2901   -3813.6472       41 
     221   -3813.2896   -3813.6485       41 
     222   -3813.2889   -3813.6496       41 
     223   -3813.2885   -3813.6506       41 
     224   -3813.2878   -3813.6515       41 
     225   -3813.2879   -3813.6521       41 
     226   -3813.2865   -3813.6527       41 
     227   -3813.3034   -3813.6531       41 
     228     -3813.56    -3813.653       41 
     229    -3813.653    -3813.653       41 
     230    -3813.653    -3813.653       41 
     231    -3813.653    -3813.653       41 
     232    -3813.653    -3813.653       41 
     233    -3813.653    -3813.653       41 
     234    -3813.653    -3813.653       41 
     235    -3813.653    -3813.653       41 
Loop time of 2.56808 on 1 procs for 235 steps with 41 atoms

99.6% CPU use with 1 MPI tasks x no OpenMP threads

Minimization stats:
  Stopping criterion = energy tolerance
  Energy initial, next-to-last, final = 
        -3582.06387333     -3813.65300895     -3813.65301288
  Force two-norm initial, final = 100.265 0.383167
  Force max component initial, final = 40.5115 0.276789
  Final line search alpha, max atom move = 0 0
  Iterations, force evaluations = 235 235

MPI task timing breakdown:
Section |  min time  |  avg time  |  max time  |%varavg| %total
---------------------------------------------------------------
Pair    | 2.4483     | 2.4483     | 2.4483     |   0.0 | 95.34
Neigh   | 0.0044557  | 0.0044557  | 0.0044557  |   0.0 |  0.17
Comm    | 0.0028127  | 0.0028127  | 0.0028127  |   0.0 |  0.11
Output  | 0.032013   | 0.032013   | 0.032013   |   0.0 |  1.25
Modify  | 0.078135   | 0.078135   | 0.078135   |   0.0 |  3.04
Other   |            | 0.002343   |            |       |  0.09

Nlocal:    41 ave 41 max 41 min
Histogram: 1 0 0 0 0 0 0 0 0 0
Nghost:    1319 ave 1319 max 1319 min
Histogram: 1 0 0 0 0 0 0 0 0 0
Neighs:    11674 ave 11674 max 11674 min
Histogram: 1 0 0 0 0 0 0 0 0 0

Total # of neighbors = 11674
Ave neighs/atom = 284.732
Neighbor list builds = 2
Dangerous builds not checked

Please see the log.cite file for references relevant to this simulation

Total wall time: 0:00:02
