 # converted from raw with ene = -18.222392
 
           4  atoms
           2  atom types
 
      0.000000000000       3.543779000000  xlo xhi
      0.000000000000       3.543779000000  ylo yhi
      0.000000000000       3.600211000000  zlo zhi
 
Masses
 
            1   63.54600000             # Cu
            2   58.69340000             # Ni
 
Atoms # charge
 
         1    1   0.000000        0.000000000000       0.000000000000       0.000000000000
         2    1   0.000000        1.771889000000       1.771889000000       0.000000000000
         3    2   0.000000        0.000000000000       1.771889000000       1.800105000000
         4    2   0.000000        1.771889000000       0.000000000000       1.800105000000
