ITEM: TIMESTEP
0
ITEM: NUMBER OF ATOMS
4
ITEM: BOX BOUNDS pp pp pp
0.0000000000000000e+00 3.5437789999999998e+00
0.0000000000000000e+00 3.5437789999999998e+00
0.0000000000000000e+00 3.6002109999999998e+00
ITEM: ATOMS id x y z fx fy fz 
1 0 0 0 -0.000124291 -0.000124291 -7.52252e-05 
2 1.77189 1.77189 0 0.000124291 0.000124291 -7.52252e-05 
3 0 1.77189 1.80011 -9.20207e-05 9.20207e-05 7.52252e-05 
4 1.77189 0 1.80011 9.20207e-05 -9.20207e-05 7.52252e-05 
ITEM: TIMESTEP
1
ITEM: NUMBER OF ATOMS
4
ITEM: BOX BOUNDS pp pp pp
0.0000000000000000e+00 3.5437789999999998e+00
0.0000000000000000e+00 3.5437789999999998e+00
0.0000000000000000e+00 3.6002109999999998e+00
ITEM: ATOMS id x y z fx fy fz 
1 0 0 0 -0.000124291 -0.000124291 -7.52252e-05 
2 1.77189 1.77189 0 0.000124291 0.000124291 -7.52252e-05 
3 0 1.77189 1.80011 -9.20207e-05 9.20207e-05 7.52252e-05 
4 1.77189 0 1.80011 9.20207e-05 -9.20207e-05 7.52252e-05 
ITEM: TIMESTEP
2
ITEM: NUMBER OF ATOMS
4
ITEM: BOX BOUNDS pp pp pp
0.0000000000000000e+00 3.5437789999999998e+00
0.0000000000000000e+00 3.5437789999999998e+00
0.0000000000000000e+00 3.6002109999999998e+00
ITEM: ATOMS id x y z fx fy fz 
1 -8.44202e-10 -8.44202e-10 -5.10939e-10 -0.000123883 -0.000123883 -7.50715e-05 
2 1.77189 1.77189 -5.10939e-10 0.000123883 0.000123883 -7.50715e-05 
3 -6.25017e-10 1.77189 1.80011 -9.17788e-05 9.17788e-05 7.50715e-05 
4 1.77189 -6.25017e-10 1.80011 9.17788e-05 -9.17788e-05 7.50715e-05 
ITEM: TIMESTEP
3
ITEM: NUMBER OF ATOMS
4
ITEM: BOX BOUNDS pp pp pp
0.0000000000000000e+00 3.5437789999999998e+00
0.0000000000000000e+00 3.5437789999999998e+00
0.0000000000000000e+00 3.6002109999999998e+00
ITEM: ATOMS id x y z fx fy fz 
1 -2.5319e-09 -2.5319e-09 -1.53366e-09 -0.000123068 -0.000123068 -7.47637e-05 
2 1.77189 1.77189 -1.53366e-09 0.000123068 0.000123068 -7.47637e-05 
3 -1.87534e-09 1.77189 1.80011 -9.1295e-05 9.1295e-05 7.47637e-05 
4 1.77189 -1.87534e-09 1.80011 9.1295e-05 -9.1295e-05 7.47637e-05 
ITEM: TIMESTEP
4
ITEM: NUMBER OF ATOMS
4
ITEM: BOX BOUNDS pp pp pp
0.0000000000000000e+00 3.5437789999999998e+00
0.0000000000000000e+00 3.5437789999999998e+00
0.0000000000000000e+00 3.6002109999999998e+00
ITEM: ATOMS id x y z fx fy fz 
1 -5.0589e-09 -5.0589e-09 -3.06881e-09 -0.000121847 -0.000121847 -7.43018e-05 
2 1.77189 1.77189 -3.06881e-09 0.000121847 0.000121847 -7.43018e-05 
3 -3.74994e-09 1.77189 1.80011 -9.05697e-05 9.05697e-05 7.43018e-05 
4 1.77189 -3.74994e-09 1.80011 9.05697e-05 -9.05697e-05 7.43018e-05 
ITEM: TIMESTEP
5
ITEM: NUMBER OF ATOMS
4
ITEM: BOX BOUNDS pp pp pp
0.0000000000000000e+00 3.5437789999999998e+00
0.0000000000000000e+00 3.5437789999999998e+00
0.0000000000000000e+00 3.6002109999999998e+00
ITEM: ATOMS id x y z fx fy fz 
1 -8.4175e-09 -8.4175e-09 -5.11687e-09 -0.000120224 -0.000120224 -7.36855e-05 
2 1.77189 1.77189 -5.11687e-09 0.000120224 0.000120224 -7.36855e-05 
3 -6.24641e-09 1.77189 1.80011 -8.96041e-05 8.96041e-05 7.36855e-05 
4 1.77189 -6.24641e-09 1.80011 8.96041e-05 -8.96041e-05 7.36855e-05 
ITEM: TIMESTEP
6
ITEM: NUMBER OF ATOMS
4
ITEM: BOX BOUNDS pp pp pp
0.0000000000000000e+00 3.5437789999999998e+00
0.0000000000000000e+00 3.5437789999999998e+00
0.0000000000000000e+00 3.6002109999999998e+00
ITEM: ATOMS id x y z fx fy fz 
1 -1.25965e-08 -1.25965e-08 -7.67819e-09 -0.000118204 -0.000118204 -7.29148e-05 
2 1.77189 1.77189 -7.67819e-09 0.000118204 0.000118204 -7.29148e-05 
3 -9.36106e-09 1.77189 1.80011 -8.84001e-05 8.84001e-05 7.29148e-05 
4 1.77189 -9.36106e-09 1.80011 8.84001e-05 -8.84001e-05 7.29148e-05 
