# Cu_100-44/

90 atoms
1 atom types

 
0.0 10.86 xlo xhi
0.0 10.86 ylo yhi
0.0 18.1 zlo zhi

  0.000000    0.000000    0.000000    xy xz yz

Atoms  # charge

1 1 0.0 0.0 0.0 -0.002867
2 1 0.0 1.81 1.81 -0.002867
3 1 0.0 0.0 1.81 1.775153
4 1 0.0 1.81 0.0 1.775153
5 1 0.0 3.62 0.0 -0.002867
6 1 0.0 5.43 1.81 -0.002867
7 1 0.0 3.62 1.81 1.775153
8 1 0.0 5.43 0.0 1.775153
9 1 0.0 7.24 0.0 -0.002867
10 1 0.0 9.05 1.81 -0.002867
11 1 0.0 7.24 1.81 1.775153
12 1 0.0 9.05 0.0 1.775153
13 1 0.0 0.0 3.62 -0.002867
14 1 0.0 1.81 5.43 -0.002867
15 1 0.0 0.0 5.43 1.775153
16 1 0.0 1.81 3.62 1.775153
17 1 0.0 3.62 3.62 -0.002867
18 1 0.0 5.43 5.43 -0.002867
19 1 0.0 3.62 5.43 1.775153
20 1 0.0 5.43 3.62 1.775153
21 1 0.0 7.24 3.62 -0.002867
22 1 0.0 9.05 5.43 -0.002867
23 1 0.0 7.24 5.43 1.775153
24 1 0.0 9.05 3.62 1.775153
25 1 0.0 0.0 7.24 -0.002867
26 1 0.0 1.81 9.05 -0.002867
27 1 0.0 0.0 9.05 1.775153
28 1 0.0 1.81 7.24 1.775153
29 1 0.0 3.62 7.24 -0.002867
30 1 0.0 5.43 9.05 -0.002867
31 1 0.0 3.62 9.05 1.775153
32 1 0.0 5.43 7.24 1.775153
33 1 0.0 7.24 7.24 -0.002867
34 1 0.0 9.05 9.05 -0.002867
35 1 0.0 7.24 9.05 1.775153
36 1 0.0 9.05 7.24 1.775153
37 1 0.0 0.0 0.0 3.62
38 1 0.0 1.81 1.81 3.62
39 1 0.0 0.0 1.81 5.464847
40 1 0.0 1.81 0.0 5.464847
41 1 0.0 3.62 0.0 3.62
42 1 0.0 5.43 1.81 3.62
43 1 0.0 3.62 1.81 5.464847
44 1 0.0 5.43 0.0 5.464847
45 1 0.0 7.24 0.0 3.62
46 1 0.0 9.05 1.81 3.62
47 1 0.0 7.24 1.81 5.464847
48 1 0.0 9.05 0.0 5.464847
49 1 0.0 0.0 3.62 3.62
50 1 0.0 1.81 5.43 3.62
51 1 0.0 0.0 5.43 5.464847
52 1 0.0 1.81 3.62 5.464847
53 1 0.0 3.62 3.62 3.62
54 1 0.0 5.43 5.43 3.62
55 1 0.0 3.62 5.43 5.464847
56 1 0.0 5.43 3.62 5.464847
57 1 0.0 7.24 3.62 3.62
58 1 0.0 9.05 5.43 3.62
59 1 0.0 7.24 5.43 5.464847
60 1 0.0 9.05 3.62 5.464847
61 1 0.0 0.0 7.24 3.62
62 1 0.0 1.81 9.05 3.62
63 1 0.0 0.0 9.05 5.464847
64 1 0.0 1.81 7.24 5.464847
65 1 0.0 3.62 7.24 3.62
66 1 0.0 5.43 9.05 3.62
67 1 0.0 3.62 9.05 5.464847
68 1 0.0 5.43 7.24 5.464847
69 1 0.0 7.24 7.24 3.62
70 1 0.0 9.05 9.05 3.62
71 1 0.0 7.24 9.05 5.464847
72 1 0.0 9.05 7.24 5.464847
73 1 0.0 0.0 0.0 7.242867
74 1 0.0 1.81 1.81 7.242867
75 1 0.0 3.62 0.0 7.242867
76 1 0.0 5.43 1.81 7.242867
77 1 0.0 7.24 0.0 7.242867
78 1 0.0 9.05 1.81 7.242867
79 1 0.0 0.0 3.62 7.242867
80 1 0.0 1.81 5.43 7.242867
81 1 0.0 3.62 3.62 7.242867
82 1 0.0 5.43 5.43 7.242867
83 1 0.0 7.24 3.62 7.242867
84 1 0.0 9.05 5.43 7.242867
85 1 0.0 0.0 7.24 7.242867
86 1 0.0 1.81 9.05 7.242867
87 1 0.0 3.62 7.24 7.242867
88 1 0.0 5.43 9.05 7.242867
89 1 0.0 7.24 7.24 7.242867
90 1 0.0 9.05 9.05 7.242867
