 # converted from raw with ene = -17.528318
 
           4  atoms
           2  atom types
 
      0.000000000000       4.140085844838  xlo xhi
      0.000000000000       3.233998130078  ylo yhi
      0.000000000000       2.985574950314  zlo zhi
     -1.555332262376      -1.555318931140       1.243035695246  xy xz yz
 
Masses
 
            1   58.69340000             # Ni
            2   15.99900000             # O
 
Atoms # charge
 
         1    1   0.000000       -1.880777756815      -0.904506737842      -0.603207176175
         2    1   0.000000        1.227570833558       0.590273412497       0.393612316964
         3    2   0.000000       -0.326626279493      -0.157013864894      -0.104678732672
         4    2   0.000000        4.328612668248       2.081691043698       1.388220935289
