ITEM: TIMESTEP
0
ITEM: NUMBER OF ATOMS
4
ITEM: BOX BOUNDS xy xz yz pp pp pp
-3.1106511935159999e+00 4.1400858448379996e+00 -1.5553322623760000e+00
0.0000000000000000e+00 4.4770338253239998e+00 -1.5553189311400000e+00
0.0000000000000000e+00 2.9855749503140001e+00 1.2430356952460000e+00
ITEM: ATOMS id x y z fx fy fz 
1 -0.851343 3.57253 2.38237 -132.2 -63.5821 -42.3887 
2 1.22757 0.590273 0.393612 132.135 63.5962 42.4155 
3 0.702808 4.32002 2.8809 -0.0326403 0.00617162 0.0136438 
4 0.188527 2.08169 1.38822 0.0982685 -0.0202982 -0.0405004 
ITEM: TIMESTEP
1
ITEM: NUMBER OF ATOMS
4
ITEM: BOX BOUNDS xy xz yz pp pp pp
-3.1106511935159999e+00 4.1400858448379996e+00 -1.5553322623760000e+00
0.0000000000000000e+00 4.4770338253239998e+00 -1.5553189311400000e+00
0.0000000000000000e+00 2.9855749503140001e+00 1.2430356952460000e+00
ITEM: ATOMS id x y z fx fy fz 
1 -0.851343 3.57253 2.38237 -132.2 -63.5822 -42.3887 
2 1.22757 0.590273 0.393612 132.134 63.5961 42.4154 
3 0.702808 4.32002 2.8809 -0.0322325 0.00636769 0.0137746 
4 0.188527 2.08169 1.38822 0.0982508 -0.0203066 -0.0405061 
ITEM: TIMESTEP
2
ITEM: NUMBER OF ATOMS
4
ITEM: BOX BOUNDS xy xz yz pp pp pp
-3.1106511935159999e+00 4.1400858448379996e+00 -1.5553322623760000e+00
0.0000000000000000e+00 4.4770338253239998e+00 -1.5553189311400000e+00
0.0000000000000000e+00 2.9855749503140001e+00 1.2430356952460000e+00
ITEM: ATOMS id x y z fx fy fz 
1 -0.852286 3.57207 2.38207 -132.094 -63.5311 -42.3547 
2 1.22851 0.590727 0.393915 132.028 63.5447 42.3811 
3 0.702808 4.32002 2.8809 -0.0321812 0.0062904 0.0136805 
4 0.188528 2.08169 1.38822 0.0980196 -0.0199221 -0.0400536 
ITEM: TIMESTEP
3
ITEM: NUMBER OF ATOMS
4
ITEM: BOX BOUNDS xy xz yz pp pp pp
-3.1106511935159999e+00 4.1400858448379996e+00 -1.5553322623760000e+00
0.0000000000000000e+00 4.4770338253239998e+00 -1.5553189311400000e+00
0.0000000000000000e+00 2.9855749503140001e+00 1.2430356952460000e+00
ITEM: ATOMS id x y z fx fy fz 
1 -0.85417 3.57117 2.38146 -131.884 -63.43 -42.2875 
2 1.2304 0.591633 0.394519 131.819 63.4431 42.3132 
3 0.702808 4.32002 2.8809 -0.0322414 0.00605853 0.0134411 
4 0.188529 2.08169 1.38822 0.097564 -0.0191559 -0.0391532 
ITEM: TIMESTEP
4
ITEM: NUMBER OF ATOMS
4
ITEM: BOX BOUNDS xy xz yz pp pp pp
-3.1106511935159999e+00 4.1400858448379996e+00 -1.5553322623760000e+00
0.0000000000000000e+00 4.4770338253239998e+00 -1.5553189311400000e+00
0.0000000000000000e+00 2.9855749503140001e+00 1.2430356952460000e+00
ITEM: ATOMS id x y z fx fy fz 
1 -0.856997 3.56981 2.38055 -131.575 -63.2813 -42.1886 
2 1.23322 0.592993 0.395426 131.51 63.2931 42.2131 
3 0.702807 4.32002 2.8809 -0.031357 0.00618226 0.0133975 
4 0.188531 2.08169 1.38822 0.0968496 -0.0180411 -0.0378332 
ITEM: TIMESTEP
5
ITEM: NUMBER OF ATOMS
4
ITEM: BOX BOUNDS xy xz yz pp pp pp
-3.1106511935159999e+00 4.1400858448379996e+00 -1.5553322623760000e+00
0.0000000000000000e+00 4.4770338253239998e+00 -1.5553189311400000e+00
0.0000000000000000e+00 2.9855749503140001e+00 1.2430356952460000e+00
ITEM: ATOMS id x y z fx fy fz 
1 -0.860763 3.568 2.37935 -131.174 -63.088 -42.0601 
2 1.23699 0.594805 0.396635 131.108 63.0984 42.083 
3 0.702806 4.32002 2.8809 -0.0305278 0.00618441 0.013233 
4 0.188534 2.08169 1.38822 0.0959291 -0.0165784 -0.0361044 
ITEM: TIMESTEP
6
ITEM: NUMBER OF ATOMS
4
ITEM: BOX BOUNDS xy xz yz pp pp pp
-3.1106511935159999e+00 4.1400858448379996e+00 -1.5553322623760000e+00
0.0000000000000000e+00 4.4770338253239998e+00 -1.5553189311400000e+00
0.0000000000000000e+00 2.9855749503140001e+00 1.2430356952460000e+00
ITEM: ATOMS id x y z fx fy fz 
1 -0.865468 3.56573 2.37784 -130.687 -62.8538 -41.9044 
2 1.24169 0.597068 0.398144 130.622 62.8625 41.9254 
3 0.702805 4.32002 2.8809 -0.0297618 0.00606575 0.0129496 
4 0.188537 2.08169 1.38822 0.094813 -0.0147982 -0.034001 
ITEM: TIMESTEP
7
ITEM: NUMBER OF ATOMS
4
ITEM: BOX BOUNDS xy xz yz pp pp pp
-3.1106511935159999e+00 4.1400858448379996e+00 -1.5553322623760000e+00
0.0000000000000000e+00 4.4770338253239998e+00 -1.5553189311400000e+00
0.0000000000000000e+00 2.9855749503140001e+00 1.2430356952460000e+00
ITEM: ATOMS id x y z fx fy fz 
1 -0.871108 3.56302 2.37603 -130.307 -62.6708 -41.7829 
2 1.24733 0.599781 0.399953 130.242 62.6776 41.8018 
3 0.702804 4.32002 2.8809 -0.0287467 0.00598186 0.0126533 
4 0.188541 2.08169 1.38822 0.0935121 -0.0127394 -0.0315663 
ITEM: TIMESTEP
8
ITEM: NUMBER OF ATOMS
4
ITEM: BOX BOUNDS xy xz yz pp pp pp
-3.1106511935159999e+00 4.1400858448379996e+00 -1.5553322623760000e+00
0.0000000000000000e+00 4.4770338253239998e+00 -1.5553189311400000e+00
0.0000000000000000e+00 2.9855749503140001e+00 1.2430356952460000e+00
ITEM: ATOMS id x y z fx fy fz 
1 -0.877679 3.55986 2.37392 -129.646 -62.3529 -41.5715 
2 1.25389 0.602942 0.402061 129.582 62.3574 41.5879 
3 0.702802 4.32002 2.8809 -0.0274078 0.00597485 0.0123744 
4 0.188546 2.08169 1.38821 0.0920552 -0.010443 -0.0288493 
ITEM: TIMESTEP
9
ITEM: NUMBER OF ATOMS
4
ITEM: BOX BOUNDS xy xz yz pp pp pp
-3.1106511935159999e+00 4.1400858448379996e+00 -1.5553322623760000e+00
0.0000000000000000e+00 4.4770338253239998e+00 -1.5553189311400000e+00
0.0000000000000000e+00 2.9855749503140001e+00 1.2430356952460000e+00
ITEM: ATOMS id x y z fx fy fz 
1 -0.885179 3.55625 2.37152 -128.927 -62.0069 -41.3414 
2 1.26139 0.606549 0.404467 128.863 62.0091 41.3553 
3 0.702801 4.32002 2.8809 -0.0263115 0.00577854 0.0119377 
4 0.188551 2.08169 1.38821 0.0904629 -0.00795087 -0.0258983 
ITEM: TIMESTEP
10
ITEM: NUMBER OF ATOMS
4
ITEM: BOX BOUNDS xy xz yz pp pp pp
-3.1106511935159999e+00 4.1400858448379996e+00 -1.5553322623760000e+00
0.0000000000000000e+00 4.4770338253239998e+00 -1.5553189311400000e+00
0.0000000000000000e+00 2.9855749503140001e+00 1.2430356952460000e+00
ITEM: ATOMS id x y z fx fy fz 
1 -0.893604 3.5522 2.36882 -128.157 -61.6363 -41.0948 
2 1.26981 0.610601 0.407169 128.094 61.6361 41.1062 
3 0.702799 4.32002 2.8809 -0.0252805 0.00548454 0.0114067 
4 0.188557 2.08169 1.38821 0.0887463 -0.0053185 -0.0227741 
ITEM: TIMESTEP
11
ITEM: NUMBER OF ATOMS
4
ITEM: BOX BOUNDS xy xz yz pp pp pp
-3.1106511935159999e+00 4.1400858448379996e+00 -1.5553322623760000e+00
0.0000000000000000e+00 4.4770338253239998e+00 -1.5553189311400000e+00
0.0000000000000000e+00 2.9855749503140001e+00 1.2430356952460000e+00
ITEM: ATOMS id x y z fx fy fz 
1 -0.902947 3.54771 2.36582 -127.34 -61.2431 -40.8334 
2 1.27915 0.615095 0.410166 127.277 61.2405 40.842 
3 0.702797 4.32002 2.8809 -0.0240001 0.00525036 0.0108888 
4 0.188564 2.08169 1.38821 0.0869387 -0.0025933 -0.0195333 
ITEM: TIMESTEP
12
ITEM: NUMBER OF ATOMS
4
ITEM: BOX BOUNDS xy xz yz pp pp pp
-3.1106511935159999e+00 4.1400858448379996e+00 -1.5553322623760000e+00
0.0000000000000000e+00 4.4770338253239998e+00 -1.5553189311400000e+00
0.0000000000000000e+00 2.9855749503140001e+00 1.2430356952460000e+00
ITEM: ATOMS id x y z fx fy fz 
1 -0.913204 3.54278 2.36253 -126.476 -60.8273 -40.5567 
2 1.2894 0.620028 0.413456 126.413 60.822 40.5626 
3 0.702795 4.32002 2.8809 -0.022369 0.00513041 0.0104223 
4 0.188571 2.08169 1.38821 0.0850867 0.000183832 -0.0162281 
ITEM: TIMESTEP
13
ITEM: NUMBER OF ATOMS
4
ITEM: BOX BOUNDS xy xz yz pp pp pp
-3.1106511935159999e+00 4.1400858448379996e+00 -1.5553322623760000e+00
0.0000000000000000e+00 4.4770338253239998e+00 -1.5553189311400000e+00
0.0000000000000000e+00 2.9855749503140001e+00 1.2430356952460000e+00
ITEM: ATOMS id x y z fx fy fz 
1 -0.924369 3.53741 2.35895 -125.558 -60.3859 -40.2631 
2 1.30056 0.625397 0.417037 125.496 60.3782 40.2662 
3 0.702793 4.32002 2.8809 -0.0210564 0.00480796 0.00979781 
4 0.188578 2.08169 1.38821 0.083158 0.00293581 -0.0129342 
ITEM: TIMESTEP
14
ITEM: NUMBER OF ATOMS
4
ITEM: BOX BOUNDS xy xz yz pp pp pp
-3.1106511935159999e+00 4.1400858448379996e+00 -1.5553322623760000e+00
0.0000000000000000e+00 4.4770338253239998e+00 -1.5553189311400000e+00
0.0000000000000000e+00 2.9855749503140001e+00 1.2430356952460000e+00
ITEM: ATOMS id x y z fx fy fz 
1 -0.936436 3.5316 2.35508 -124.576 -59.9131 -39.9484 
2 1.31262 0.631199 0.420907 124.515 59.9032 39.9491 
3 0.702791 4.32002 2.8809 -0.0200115 0.00431167 0.0090361 
4 0.188586 2.08169 1.3882 0.081127 0.00559312 -0.00972026 
ITEM: TIMESTEP
15
ITEM: NUMBER OF ATOMS
4
ITEM: BOX BOUNDS xy xz yz pp pp pp
-3.1106511935159999e+00 4.1400858448379996e+00 -1.5553322623760000e+00
0.0000000000000000e+00 4.4770338253239998e+00 -1.5553189311400000e+00
0.0000000000000000e+00 2.9855749503140001e+00 1.2430356952460000e+00
ITEM: ATOMS id x y z fx fy fz 
1 -0.949398 3.52537 2.35093 -123.509 -59.4 -39.6069 
2 1.32558 0.637432 0.425063 123.449 59.388 39.6052 
3 0.702789 4.32002 2.8809 -0.0188097 0.00384926 0.00827693 
4 0.188595 2.08169 1.3882 0.0790353 0.00812419 -0.00662771 
ITEM: TIMESTEP
16
ITEM: NUMBER OF ATOMS
4
ITEM: BOX BOUNDS xy xz yz pp pp pp
-3.1106511935159999e+00 4.1400858448379996e+00 -1.5553322623760000e+00
0.0000000000000000e+00 4.4770338253239998e+00 -1.5553189311400000e+00
0.0000000000000000e+00 2.9855749503140001e+00 1.2430356952460000e+00
ITEM: ATOMS id x y z fx fy fz 
1 -0.963248 3.51871 2.34648 -122.332 -58.8341 -39.23 
2 1.33942 0.644092 0.429505 122.273 58.8201 39.2261 
3 0.702787 4.32002 2.88091 -0.0173156 0.00348847 0.00756647 
4 0.188604 2.08169 1.3882 0.0769258 0.0105057 -0.00368935 
ITEM: TIMESTEP
17
ITEM: NUMBER OF ATOMS
4
ITEM: BOX BOUNDS xy xz yz pp pp pp
-3.1106511935159999e+00 4.1400858448379996e+00 -1.5553322623760000e+00
0.0000000000000000e+00 4.4770338253239998e+00 -1.5553189311400000e+00
0.0000000000000000e+00 2.9855749503140001e+00 1.2430356952460000e+00
ITEM: ATOMS id x y z fx fy fz 
1 -0.977978 3.51162 2.34176 -121.013 -58.1996 -38.8074 
2 1.35414 0.651175 0.434228 120.955 58.1839 38.8016 
3 0.702785 4.32002 2.88091 -0.0160274 0.00299206 0.00674736 
4 0.188613 2.08169 1.3882 0.0746634 0.0126368 -0.000986434 
ITEM: TIMESTEP
18
ITEM: NUMBER OF ATOMS
4
ITEM: BOX BOUNDS xy xz yz pp pp pp
-3.1106511935159999e+00 4.1400858448379996e+00 -1.5553322623760000e+00
0.0000000000000000e+00 4.4770338253239998e+00 -1.5553189311400000e+00
0.0000000000000000e+00 2.9855749503140001e+00 1.2430356952460000e+00
ITEM: ATOMS id x y z fx fy fz 
1 -0.993581 3.50412 2.33676 -119.513 -57.4781 -38.3267 
2 1.36974 0.658676 0.439231 119.456 57.461 38.3193 
3 0.702783 4.32003 2.88091 -0.014577 0.00253873 0.00593952 
4 0.188622 2.08169 1.3882 0.0722957 0.0145139 0.00146806 
ITEM: TIMESTEP
19
ITEM: NUMBER OF ATOMS
4
ITEM: BOX BOUNDS xy xz yz pp pp pp
-3.1106511935159999e+00 4.1400858448379996e+00 -1.5553322623760000e+00
0.0000000000000000e+00 4.4770338253239998e+00 -1.5553189311400000e+00
0.0000000000000000e+00 2.9855749503140001e+00 1.2430356952460000e+00
ITEM: ATOMS id x y z fx fy fz 
1 -1.01005 3.4962 2.33148 -117.79 -56.6492 -37.7744 
2 1.3862 0.666593 0.44451 117.733 56.6309 37.7656 
3 0.702781 4.32003 2.88091 -0.0129408 0.0021418 0.00515266 
4 0.188632 2.08169 1.3882 0.0698137 0.0161143 0.00365207 
ITEM: TIMESTEP
20
ITEM: NUMBER OF ATOMS
4
ITEM: BOX BOUNDS xy xz yz pp pp pp
-3.1106511935159999e+00 4.1400858448379996e+00 -1.5553322623760000e+00
0.0000000000000000e+00 4.4770338253239998e+00 -1.5553189311400000e+00
0.0000000000000000e+00 2.9855749503140001e+00 1.2430356952460000e+00
ITEM: ATOMS id x y z fx fy fz 
1 -1.02736 3.48787 2.32592 -115.798 -55.6913 -37.1359 
2 1.4035 0.674918 0.450062 115.743 55.6723 37.1261 
3 0.702779 4.32003 2.88091 -0.0114089 0.00166385 0.00429611 
4 0.188643 2.0817 1.3882 0.0669943 0.0173214 0.00548397 
ITEM: TIMESTEP
21
ITEM: NUMBER OF ATOMS
4
ITEM: BOX BOUNDS xy xz yz pp pp pp
-3.1106511935159999e+00 4.1400858448379996e+00 -1.5553322623760000e+00
0.0000000000000000e+00 4.4770338253239998e+00 -1.5553189311400000e+00
0.0000000000000000e+00 2.9855749503140001e+00 1.2430356952460000e+00
ITEM: ATOMS id x y z fx fy fz 
1 -1.04552 3.47914 2.3201 -113.495 -54.5833 -36.3973 
2 1.42165 0.683648 0.455883 113.441 54.564 36.3869 
3 0.702777 4.32003 2.88091 -0.00976151 0.00121325 0.00344346 
4 0.188653 2.0817 1.3882 0.063795 0.0181125 0.00694781 
ITEM: TIMESTEP
22
ITEM: NUMBER OF ATOMS
4
ITEM: BOX BOUNDS xy xz yz pp pp pp
-3.1106511935159999e+00 4.1400858448379996e+00 -1.5553322623760000e+00
0.0000000000000000e+00 4.4770338253239998e+00 -1.5553189311400000e+00
0.0000000000000000e+00 2.9855749503140001e+00 1.2430356952460000e+00
ITEM: ATOMS id x y z fx fy fz 
1 -1.0645 3.47001 2.31401 -110.839 -53.306 -35.5458 
2 1.44063 0.692774 0.461969 110.786 53.2866 35.535 
3 0.702776 4.32003 2.88091 -0.00774048 0.000917554 0.00268144 
4 0.188664 2.0817 1.3882 0.0603103 0.0185374 0.00807848 
ITEM: TIMESTEP
23
ITEM: NUMBER OF ATOMS
4
ITEM: BOX BOUNDS xy xz yz pp pp pp
-3.1106511935159999e+00 4.1400858448379996e+00 -1.5553322623760000e+00
0.0000000000000000e+00 4.4770338253239998e+00 -1.5553189311400000e+00
0.0000000000000000e+00 2.9855749503140001e+00 1.2430356952460000e+00
ITEM: ATOMS id x y z fx fy fz 
1 -1.08429 3.46049 2.30767 -107.798 -51.8435 -34.5706 
2 1.46041 0.702289 0.468314 107.747 51.8241 34.5597 
3 0.702774 4.32003 2.88091 -0.00533495 0.000786359 0.00201856 
4 0.188675 2.0817 1.38821 0.0565704 0.0186198 0.00889541 
ITEM: TIMESTEP
24
ITEM: NUMBER OF ATOMS
4
ITEM: BOX BOUNDS xy xz yz pp pp pp
-3.1106511935159999e+00 4.1400858448379996e+00 -1.5553322623760000e+00
0.0000000000000000e+00 4.4770338253239998e+00 -1.5553189311400000e+00
0.0000000000000000e+00 2.9855749503140001e+00 1.2430356952460000e+00
ITEM: ATOMS id x y z fx fy fz 
1 -1.10488 3.45059 2.30107 -104.975 -50.4857 -33.6653 
2 1.48098 0.712183 0.474913 104.921 50.4647 33.6532 
3 0.702773 4.32003 2.88091 -0.00284738 0.000679441 0.00136382 
4 0.188685 2.08171 1.38821 0.0565818 0.0202937 0.0106907 
ITEM: TIMESTEP
25
ITEM: NUMBER OF ATOMS
4
ITEM: BOX BOUNDS xy xz yz pp pp pp
-3.1106511935159999e+00 4.1400858448379996e+00 -1.5553322623760000e+00
0.0000000000000000e+00 4.4770338253239998e+00 -1.5553189311400000e+00
0.0000000000000000e+00 2.9855749503140001e+00 1.2430356952460000e+00
ITEM: ATOMS id x y z fx fy fz 
1 -1.12623 3.44033 2.29422 -101.821 -48.9685 -32.6536 
2 1.50232 0.722447 0.481757 101.767 48.9474 32.6414 
3 0.702773 4.32003 2.88091 -0.000140906 0.00066997 0.000769482 
4 0.188697 2.08171 1.38821 0.0539436 0.0205021 0.0114346 
ITEM: TIMESTEP
26
ITEM: NUMBER OF ATOMS
4
ITEM: BOX BOUNDS xy xz yz pp pp pp
-3.1106511935159999e+00 4.1400858448379996e+00 -1.5553322623760000e+00
0.0000000000000000e+00 4.4770338253239998e+00 -1.5553189311400000e+00
0.0000000000000000e+00 2.9855749503140001e+00 1.2430356952460000e+00
ITEM: ATOMS id x y z fx fy fz 
1 -1.14833 3.4297 2.28713 -97.9961 -47.1289 -31.4268 
2 1.52441 0.733071 0.488842 97.9431 47.1081 31.4149 
3 0.702773 4.32003 2.88091 0.0028926 0.000816922 0.000278202 
4 0.188709 2.08172 1.38821 0.0501334 0.019967 0.0116125 
ITEM: TIMESTEP
27
ITEM: NUMBER OF ATOMS
4
ITEM: BOX BOUNDS xy xz yz pp pp pp
-3.1106511935159999e+00 4.1400858448379996e+00 -1.5553322623760000e+00
0.0000000000000000e+00 4.4770338253239998e+00 -1.5553189311400000e+00
0.0000000000000000e+00 2.9855749503140001e+00 1.2430356952460000e+00
ITEM: ATOMS id x y z fx fy fz 
1 -1.17115 3.41872 2.27981 -93.9352 -45.1757 -30.1242 
2 1.54722 0.744043 0.496159 93.8836 45.1557 30.113 
3 0.702773 4.32003 2.88091 0.00620513 0.00110365 -0.000118064 
4 0.18872 2.08172 1.38822 0.0454679 0.0188639 0.0113505 
ITEM: TIMESTEP
28
ITEM: NUMBER OF ATOMS
4
ITEM: BOX BOUNDS xy xz yz pp pp pp
-3.1106511935159999e+00 4.1400858448379996e+00 -1.5553322623760000e+00
0.0000000000000000e+00 4.4770338253239998e+00 -1.5553189311400000e+00
0.0000000000000000e+00 2.9855749503140001e+00 1.2430356952460000e+00
ITEM: ATOMS id x y z fx fy fz 
1 -1.19467 3.40741 2.27227 -89.7061 -43.1415 -28.7677 
2 1.57073 0.755351 0.5037 89.6559 43.1225 28.7573 
3 0.702775 4.32003 2.88091 0.00983656 0.00155682 -0.000397992 
4 0.188732 2.08173 1.38822 0.0404076 0.0174311 0.0108139 
ITEM: TIMESTEP
29
ITEM: NUMBER OF ATOMS
4
ITEM: BOX BOUNDS xy xz yz pp pp pp
-3.1106511935159999e+00 4.1400858448379996e+00 -1.5553322623760000e+00
0.0000000000000000e+00 4.4770338253239998e+00 -1.5553189311400000e+00
0.0000000000000000e+00 2.9855749503140001e+00 1.2430356952460000e+00
ITEM: ATOMS id x y z fx fy fz 
1 -1.21887 3.39577 2.26451 -85.3889 -41.0649 -27.3828 
2 1.59491 0.766981 0.511456 85.3404 41.0471 27.3734 
3 0.702777 4.32003 2.88091 0.01365 0.00211854 -0.00059647 
4 0.188743 2.08173 1.38822 0.034841 0.0156309 0.00998356 
ITEM: TIMESTEP
30
ITEM: NUMBER OF ATOMS
4
ITEM: BOX BOUNDS xy xz yz pp pp pp
-3.1106511935159999e+00 4.1400858448379996e+00 -1.5553322623760000e+00
0.0000000000000000e+00 4.4770338253239998e+00 -1.5553189311400000e+00
0.0000000000000000e+00 2.9855749503140001e+00 1.2430356952460000e+00
ITEM: ATOMS id x y z fx fy fz 
1 -1.2437 3.38383 2.25655 -81.0707 -38.9878 -25.9976 
2 1.61973 0.778918 0.519417 81.0246 38.9716 25.9895 
3 0.702781 4.32003 2.88091 0.0175421 0.00274809 -0.00073647 
4 0.188753 2.08173 1.38822 0.0285619 0.0133788 0.00880862 
ITEM: TIMESTEP
31
ITEM: NUMBER OF ATOMS
4
ITEM: BOX BOUNDS xy xz yz pp pp pp
-3.1106511935159999e+00 4.1400858448379996e+00 -1.5553322623760000e+00
0.0000000000000000e+00 4.4770338253239998e+00 -1.5553189311400000e+00
0.0000000000000000e+00 2.9855749503140001e+00 1.2430356952460000e+00
ITEM: ATOMS id x y z fx fy fz 
1 -1.26914 3.37159 2.24839 -76.8402 -36.9528 -24.6405 
2 1.64516 0.791149 0.527573 76.7973 36.9388 24.634 
3 0.702787 4.32003 2.88091 0.021393 0.00339917 -0.000843678 
4 0.188762 2.08174 1.38823 0.0214955 0.0106521 0.00727889 
ITEM: TIMESTEP
32
ITEM: NUMBER OF ATOMS
4
ITEM: BOX BOUNDS xy xz yz pp pp pp
-3.1106511935159999e+00 4.1400858448379996e+00 -1.5553322623760000e+00
0.0000000000000000e+00 4.4770338253239998e+00 -1.5553189311400000e+00
0.0000000000000000e+00 2.9855749503140001e+00 1.2430356952460000e+00
ITEM: ATOMS id x y z fx fy fz 
1 -1.29516 3.35908 2.24004 -72.7831 -35.0013 -23.339 
2 1.67116 0.803657 0.535914 72.7444 34.9898 23.3345 
3 0.702794 4.32003 2.88091 0.025008 0.00399333 -0.00096348 
4 0.188769 2.08174 1.38823 0.0136993 0.00748988 0.00542442 
ITEM: TIMESTEP
33
ITEM: NUMBER OF ATOMS
4
ITEM: BOX BOUNDS xy xz yz pp pp pp
-3.1106511935159999e+00 4.1400858448379996e+00 -1.5553322623760000e+00
0.0000000000000000e+00 4.4770338253239998e+00 -1.5553189311400000e+00
0.0000000000000000e+00 2.9855749503140001e+00 1.2430356952460000e+00
ITEM: ATOMS id x y z fx fy fz 
1 -1.32173 3.34631 2.23152 -68.9803 -33.172 -22.119 
2 1.69771 0.816429 0.544432 68.9469 33.1636 22.1169 
3 0.702803 4.32003 2.88091 0.0281261 0.0044259 -0.00115613 
4 0.188774 2.08175 1.38823 0.00527662 0.0039506 0.00328744 
ITEM: TIMESTEP
34
ITEM: NUMBER OF ATOMS
4
ITEM: BOX BOUNDS xy xz yz pp pp pp
-3.1106511935159999e+00 4.1400858448379996e+00 -1.5553322623760000e+00
0.0000000000000000e+00 4.4770338253239998e+00 -1.5553189311400000e+00
0.0000000000000000e+00 2.9855749503140001e+00 1.2430356952460000e+00
ITEM: ATOMS id x y z fx fy fz 
1 -1.34881 3.33328 2.22284 -65.5095 -31.5023 -21.0055 
2 1.72479 0.82945 0.553116 65.4828 31.4977 21.0061 
3 0.702814 4.32003 2.88091 0.0305625 0.00463639 -0.00144919 
4 0.188776 2.08175 1.38823 -0.00389324 -1.75986e-05 0.00083535 
ITEM: TIMESTEP
35
ITEM: NUMBER OF ATOMS
4
ITEM: BOX BOUNDS xy xz yz pp pp pp
-3.1106511935159999e+00 4.1400858448379996e+00 -1.5553322623760000e+00
0.0000000000000000e+00 4.4770338253239998e+00 -1.5553189311400000e+00
0.0000000000000000e+00 2.9855749503140001e+00 1.2430356952460000e+00
ITEM: ATOMS id x y z fx fy fz 
1 -1.37639 3.32002 2.214 -62.4599 -30.0353 -20.0271 
2 1.75235 0.842709 0.561958 62.4416 30.0351 20.0309 
3 0.702827 4.32004 2.88091 0.0322247 0.00461623 -0.00183208 
4 0.188774 2.08175 1.38823 -0.013973 -0.00448996 -0.00198129 
ITEM: TIMESTEP
36
ITEM: NUMBER OF ATOMS
4
ITEM: BOX BOUNDS xy xz yz pp pp pp
-3.1106511935159999e+00 4.1400858448379996e+00 -1.5553322623760000e+00
0.0000000000000000e+00 4.4770338253239998e+00 -1.5553189311400000e+00
0.0000000000000000e+00 2.9855749503140001e+00 1.2430356952460000e+00
ITEM: ATOMS id x y z fx fy fz 
1 -1.40443 3.30654 2.20501 -60.0119 -28.8576 -19.2417 
2 1.78038 0.856193 0.570951 60.0036 28.8626 19.2491 
3 0.702842 4.32004 2.88091 0.0329746 0.00434121 -0.00230196 
4 0.188768 2.08175 1.38823 -0.0247488 -0.00936388 -0.00509467 
ITEM: TIMESTEP
37
ITEM: NUMBER OF ATOMS
4
ITEM: BOX BOUNDS xy xz yz pp pp pp
-3.1106511935159999e+00 4.1400858448379996e+00 -1.5553322623760000e+00
0.0000000000000000e+00 4.4770338253239998e+00 -1.5553189311400000e+00
0.0000000000000000e+00 2.9855749503140001e+00 1.2430356952460000e+00
ITEM: ATOMS id x y z fx fy fz 
1 -1.43292 3.29284 2.19587 -58.8778 -28.3119 -18.8778 
2 1.80886 0.869893 0.580088 58.8806 28.3224 18.889 
3 0.702857 4.32004 2.88091 0.0325954 0.00374889 -0.00288158 
4 0.188756 2.08174 1.38823 -0.0354317 -0.014263 -0.00825564 
ITEM: TIMESTEP
38
ITEM: NUMBER OF ATOMS
4
ITEM: BOX BOUNDS xy xz yz pp pp pp
-3.1106511935159999e+00 4.1400858448379996e+00 -1.5553322623760000e+00
0.0000000000000000e+00 4.4770338253239998e+00 -1.5553189311400000e+00
0.0000000000000000e+00 2.9855749503140001e+00 1.2430356952460000e+00
ITEM: ATOMS id x y z fx fy fz 
1 -1.46182 3.27894 2.1866 -62.4034 -30.0073 -20.0085 
2 1.83778 0.883799 0.589362 62.4176 30.0233 20.0233 
3 0.702873 4.32004 2.88091 0.0311903 0.00290885 -0.00351559 
4 0.188739 2.08173 1.38823 -0.0454129 -0.0188988 -0.0112741 
ITEM: TIMESTEP
39
ITEM: NUMBER OF ATOMS
4
ITEM: BOX BOUNDS xy xz yz pp pp pp
-3.1106511935159999e+00 4.1400858448379996e+00 -1.5553322623760000e+00
0.0000000000000000e+00 4.4770338253239998e+00 -1.5553189311400000e+00
0.0000000000000000e+00 2.9855749503140001e+00 1.2430356952460000e+00
ITEM: ATOMS id x y z fx fy fz 
1 -1.49115 3.26483 2.1772 -78.6883 -37.8394 -25.2314 
2 1.86711 0.897909 0.598772 78.7175 37.8625 25.2509 
3 0.702888 4.32004 2.8809 0.0291892 0.00194202 -0.0041622 
4 0.188718 2.08172 1.38822 -0.0584077 -0.025053 -0.0153366 
ITEM: TIMESTEP
40
ITEM: NUMBER OF ATOMS
4
ITEM: BOX BOUNDS xy xz yz pp pp pp
-3.1106511935159999e+00 4.1400858448379996e+00 -1.5553322623760000e+00
0.0000000000000000e+00 4.4770338253239998e+00 -1.5553189311400000e+00
0.0000000000000000e+00 2.9855749503140001e+00 1.2430356952460000e+00
ITEM: ATOMS id x y z fx fy fz 
1 -1.52092 3.25052 2.16765 -62.7764 -30.1858 -20.1277 
2 1.89689 0.912233 0.608325 62.8226 30.2171 20.1527 
3 0.702899 4.32004 2.8809 0.0271059 0.000839316 -0.00494313 
4 0.188696 2.08172 1.38821 -0.0732665 -0.032197 -0.0200989 
ITEM: TIMESTEP
41
ITEM: NUMBER OF ATOMS
4
ITEM: BOX BOUNDS xy xz yz pp pp pp
-3.1106511935159999e+00 4.1400858448379996e+00 -1.5553322623760000e+00
0.0000000000000000e+00 4.4770338253239998e+00 -1.5553189311400000e+00
0.0000000000000000e+00 2.9855749503140001e+00 1.2430356952460000e+00
ITEM: ATOMS id x y z fx fy fz 
1 -1.55125 3.23594 2.15793 -7.42644 -3.56361 -2.37513 
2 1.92724 0.92683 0.61806 7.45604 3.58659 2.39439 
3 0.702912 4.32004 2.8809 0.0239033 -0.000179881 -0.00538803 
4 0.18866 2.0817 1.3882 -0.0534938 -0.0227956 -0.0138747 
ITEM: TIMESTEP
42
ITEM: NUMBER OF ATOMS
4
ITEM: BOX BOUNDS xy xz yz pp pp pp
-3.1106511935159999e+00 4.1400858448379996e+00 -1.5553322623760000e+00
0.0000000000000000e+00 4.4770338253239998e+00 -1.5553189311400000e+00
0.0000000000000000e+00 2.9855749503140001e+00 1.2430356952460000e+00
ITEM: ATOMS id x y z fx fy fz 
1 -1.58197 3.22119 2.1481 1.16196 0.555751 0.368723 
2 1.95809 0.94167 0.627968 -1.13871 -0.552253 -0.369854 
3 0.703011 4.32004 2.88088 -0.00115565 0.00422039 0.00496791 
4 0.188439 2.08161 1.38815 -0.0220942 -0.00771828 -0.00383721 
ITEM: TIMESTEP
43
ITEM: NUMBER OF ATOMS
4
ITEM: BOX BOUNDS xy xz yz pp pp pp
-3.1106511935159999e+00 4.1400858448379996e+00 -1.5553322623760000e+00
0.0000000000000000e+00 4.4770338253239998e+00 -1.5553189311400000e+00
0.0000000000000000e+00 2.9855749503140001e+00 1.2430356952460000e+00
ITEM: ATOMS id x y z fx fy fz 
1 -1.58197 3.22119 2.1481 1.16198 0.555761 0.36873 
2 1.95809 0.94167 0.627968 -1.13873 -0.552263 -0.36986 
3 0.703011 4.32004 2.88088 -0.0011519 0.0042222 0.00496912 
4 0.188439 2.08161 1.38815 -0.0220984 -0.00772027 -0.00383853 
ITEM: TIMESTEP
44
ITEM: NUMBER OF ATOMS
4
ITEM: BOX BOUNDS xy xz yz pp pp pp
-3.1106511935159999e+00 4.1400858448379996e+00 -1.5553322623760000e+00
0.0000000000000000e+00 4.4770338253239998e+00 -1.5553189311400000e+00
0.0000000000000000e+00 2.9855749503140001e+00 1.2430356952460000e+00
ITEM: ATOMS id x y z fx fy fz 
1 -1.58197 3.2212 2.14811 1.16185 0.555712 0.368704 
2 1.95808 0.941666 0.627965 -1.13863 -0.552197 -0.36981 
3 0.703011 4.32004 2.88088 -0.00117092 0.00419775 0.00494591 
4 0.188439 2.08161 1.38815 -0.0220499 -0.00771206 -0.00383988 
ITEM: TIMESTEP
45
ITEM: NUMBER OF ATOMS
4
ITEM: BOX BOUNDS xy xz yz pp pp pp
-3.1106511935159999e+00 4.1400858448379996e+00 -1.5553322623760000e+00
0.0000000000000000e+00 4.4770338253239998e+00 -1.5553189311400000e+00
0.0000000000000000e+00 2.9855749503140001e+00 1.2430356952460000e+00
ITEM: ATOMS id x y z fx fy fz 
1 -1.58195 3.2212 2.14811 1.16158 0.555605 0.368648 
2 1.95806 0.941658 0.62796 -1.13841 -0.552056 -0.369703 
3 0.703011 4.32004 2.88088 -0.00114223 0.00418105 0.00492101 
4 0.188438 2.08161 1.38815 -0.0220264 -0.00773088 -0.003866 
ITEM: TIMESTEP
46
ITEM: NUMBER OF ATOMS
4
ITEM: BOX BOUNDS xy xz yz pp pp pp
-3.1106511935159999e+00 4.1400858448379996e+00 -1.5553322623760000e+00
0.0000000000000000e+00 4.4770338253239998e+00 -1.5553189311400000e+00
0.0000000000000000e+00 2.9855749503140001e+00 1.2430356952460000e+00
ITEM: ATOMS id x y z fx fy fz 
1 -1.58192 3.22122 2.14812 1.16123 0.555475 0.368582 
2 1.95804 0.941646 0.627952 -1.13813 -0.551868 -0.369559 
3 0.703011 4.32004 2.88088 -0.0010083 0.00420004 0.00491318 
4 0.188438 2.08161 1.38815 -0.0220917 -0.00780705 -0.00393697 
ITEM: TIMESTEP
47
ITEM: NUMBER OF ATOMS
4
ITEM: BOX BOUNDS xy xz yz pp pp pp
-3.1106511935159999e+00 4.1400858448379996e+00 -1.5553322623760000e+00
0.0000000000000000e+00 4.4770338253239998e+00 -1.5553189311400000e+00
0.0000000000000000e+00 2.9855749503140001e+00 1.2430356952460000e+00
ITEM: ATOMS id x y z fx fy fz 
1 -1.58189 3.22123 2.14813 1.16069 0.555268 0.368472 
2 1.95801 0.941631 0.627941 -1.13771 -0.5516 -0.369355 
3 0.703011 4.32004 2.88088 -0.00112992 0.00408158 0.00480714 
4 0.188437 2.0816 1.38815 -0.0218495 -0.00774941 -0.00392508 
ITEM: TIMESTEP
48
ITEM: NUMBER OF ATOMS
4
ITEM: BOX BOUNDS xy xz yz pp pp pp
-3.1106511935159999e+00 4.1400858448379996e+00 -1.5553322623760000e+00
0.0000000000000000e+00 4.4770338253239998e+00 -1.5553189311400000e+00
0.0000000000000000e+00 2.9855749503140001e+00 1.2430356952460000e+00
ITEM: ATOMS id x y z fx fy fz 
1 -1.58185 3.22125 2.14814 1.16003 0.555016 0.36834 
2 1.95797 0.941611 0.627928 -1.13719 -0.551266 -0.369101 
3 0.703011 4.32004 2.88088 -0.00112041 0.00401222 0.00472754 
4 0.188436 2.0816 1.38815 -0.021726 -0.00776229 -0.00396624 
ITEM: TIMESTEP
49
ITEM: NUMBER OF ATOMS
4
ITEM: BOX BOUNDS xy xz yz pp pp pp
-3.1106511935159999e+00 4.1400858448379996e+00 -1.5553322623760000e+00
0.0000000000000000e+00 4.4770338253239998e+00 -1.5553189311400000e+00
0.0000000000000000e+00 2.9855749503140001e+00 1.2430356952460000e+00
ITEM: ATOMS id x y z fx fy fz 
1 -1.5818 3.22128 2.14816 1.15925 0.554714 0.368179 
2 1.95792 0.941587 0.627912 -1.13656 -0.550867 -0.368799 
3 0.703011 4.32004 2.88088 -0.0011056 0.00393215 0.0046348 
4 0.188436 2.0816 1.38815 -0.0215839 -0.0077787 -0.0040154 
ITEM: TIMESTEP
50
ITEM: NUMBER OF ATOMS
4
ITEM: BOX BOUNDS xy xz yz pp pp pp
-3.1106511935159999e+00 4.1400858448379996e+00 -1.5553322623760000e+00
0.0000000000000000e+00 4.4770338253239998e+00 -1.5553189311400000e+00
0.0000000000000000e+00 2.9855749503140001e+00 1.2430356952460000e+00
ITEM: ATOMS id x y z fx fy fz 
1 -1.58174 3.2213 2.14818 1.15826 0.554322 0.367965 
2 1.95786 0.94156 0.627894 -1.13576 -0.550372 -0.368426 
3 0.703011 4.32004 2.88088 -0.00120493 0.0037847 0.00449152 
4 0.188434 2.0816 1.38815 -0.021293 -0.00773497 -0.00402961 
ITEM: TIMESTEP
51
ITEM: NUMBER OF ATOMS
4
ITEM: BOX BOUNDS xy xz yz pp pp pp
-3.1106511935159999e+00 4.1400858448379996e+00 -1.5553322623760000e+00
0.0000000000000000e+00 4.4770338253239998e+00 -1.5553189311400000e+00
0.0000000000000000e+00 2.9855749503140001e+00 1.2430356952460000e+00
ITEM: ATOMS id x y z fx fy fz 
1 -1.58168 3.22134 2.1482 1.15715 0.553883 0.367724 
2 1.9578 0.941528 0.627873 -1.13484 -0.549806 -0.368003 
3 0.703011 4.32004 2.88088 -0.00105522 0.00374552 0.00441523 
4 0.188433 2.0816 1.38815 -0.0212544 -0.00782289 -0.00413623 
ITEM: TIMESTEP
52
ITEM: NUMBER OF ATOMS
4
ITEM: BOX BOUNDS xy xz yz pp pp pp
-3.1106511935159999e+00 4.1400858448379996e+00 -1.5553322623760000e+00
0.0000000000000000e+00 4.4770338253239998e+00 -1.5553189311400000e+00
0.0000000000000000e+00 2.9855749503140001e+00 1.2430356952460000e+00
ITEM: ATOMS id x y z fx fy fz 
1 -1.5816 3.22137 2.14822 1.15593 0.553398 0.367457 
2 1.95772 0.941493 0.627849 -1.13384 -0.549189 -0.367541 
3 0.703011 4.32004 2.88088 -0.00101772 0.00364186 0.0042912 
4 0.188432 2.0816 1.38815 -0.0210722 -0.00785065 -0.00420676 
ITEM: TIMESTEP
53
ITEM: NUMBER OF ATOMS
4
ITEM: BOX BOUNDS xy xz yz pp pp pp
-3.1106511935159999e+00 4.1400858448379996e+00 -1.5553322623760000e+00
0.0000000000000000e+00 4.4770338253239998e+00 -1.5553189311400000e+00
0.0000000000000000e+00 2.9855749503140001e+00 1.2430356952460000e+00
ITEM: ATOMS id x y z fx fy fz 
1 -1.58152 3.22141 2.14825 1.15434 0.552742 0.367081 
2 1.95764 0.941454 0.627823 -1.1325 -0.548398 -0.36696 
3 0.703011 4.32004 2.88088 -0.00105882 0.00349098 0.00413145 
4 0.18843 2.0816 1.38815 -0.020785 -0.00783547 -0.00425207 
ITEM: TIMESTEP
54
ITEM: NUMBER OF ATOMS
4
ITEM: BOX BOUNDS xy xz yz pp pp pp
-3.1106511935159999e+00 4.1400858448379996e+00 -1.5553322623760000e+00
0.0000000000000000e+00 4.4770338253239998e+00 -1.5553189311400000e+00
0.0000000000000000e+00 2.9855749503140001e+00 1.2430356952460000e+00
ITEM: ATOMS id x y z fx fy fz 
1 -1.58143 3.22145 2.14828 1.15278 0.552107 0.366722 
2 1.95755 0.94141 0.627794 -1.1312 -0.547618 -0.366384 
3 0.70301 4.32005 2.88088 -0.001049 0.00335635 0.0039788 