 # LAMMPS data file written by Ovito Pyth
 
          41  atoms
           3  atom types
 
      0.000000000000       7.495103000000  xlo xhi
      0.000000000000       7.495178000000  ylo yhi
      0.000000000000      20.111915000000  zlo zhi
 
Masses
 
            1   63.54600000             # Cu
            2   58.69340000             # Ni
            3   15.99900000             # O
 
Atoms # charge
 
         1    1   0.000000        0.784255490943       2.659958567594       1.067106513888
         2    1   0.000000        4.496529278586       2.660234556360       1.072374410240
         3    1   0.000000        6.382331847804       0.791850757928       1.067793916051
         4    1   0.000000        0.761841286072       6.414572297141       1.064992248957
         5    1   0.000000        2.642329202908       4.517212264049       1.067898174051
         6    1   0.000000        4.510804342361       6.414356939658       1.067157931059
         7    1   0.000000        6.382039059008       4.539252410071       1.065395411294
         8    1   0.000000        0.758551559378       0.787764709605       2.746050571492
         9    1   0.000000        2.643424787395       2.658027592387       2.760287222155
        10    1   0.000000        4.516613359309       0.784909030570       2.755470374519
        11    1   0.000000        6.391482145252       2.665417271234       2.727882013735
        12    1   0.000000        2.636358161139       6.405822872165       2.726847814252
        13    1   0.000000        4.514190327551       4.543689701755       2.746961348976
        14    1   0.000000        6.382220513379       6.414471186629       2.745821680136
        15    1   0.000000        0.742338368261       2.671758409872       4.480468711744
        16    1   0.000000        2.632685592142       0.756601805814       4.481149698187
        17    1   0.000000        4.545348502373       2.669052196279       4.481527469032
        18    1   0.000000        6.391427182644       0.793064891407       4.506166427698
        19    1   0.000000        0.761072006789       6.408927142354       4.497416600009
        20    1   0.000000        2.629171853834       4.558801841685       4.479590613705
        21    1   0.000000        4.508427546818       6.405515553706       4.506375361177
        22    1   0.000000        6.387819258942       4.540194903386       4.498435974840
        23    1   0.000000        0.776379360712       0.795332599285       6.241533068473
        24    1   0.000000        4.502694993750       0.798976070909       6.220932743423
        25    1   0.000000        6.393081366972       2.669636403086       6.268831238232
        26    1   0.000000        0.762690823033       4.538516387892       6.259195876811
        27    1   0.000000        2.631200664766       6.403510725321       6.267002590155
        28    1   0.000000        4.505316274016       4.524839497942       6.241538434213
        29    1   0.000000        0.784240370434       2.652896808638       7.956431361265
        30    1   0.000000        0.795085407867       6.439540261300       7.921211828356
        31    1   0.000000        2.648006038897       4.516804756945       7.956153074294
        32    1   0.000000        4.480231208082       6.435597105833       7.905511134356
        33    1   0.000000        6.356255345581       4.508044445331       7.920953942733
        34    1   0.000000        2.642238434949       0.806128767517       1.071252441378
        35    1   0.000000        0.757718594801       4.543603035487       2.737748776025
        36    1   0.000000        2.636856461650       2.664572871337       6.093095654946
        37    1   0.000000        6.384544860386       6.412051473427       6.262236618219
        38    1   0.000000        6.360988061734       0.819000523944       7.906235254457
        39    2   0.000000        2.651187239627       0.838384770369       7.893261535511
        40    2   0.000000        4.462967349442       2.650131023979       7.894075886417
        41    3   0.000000        2.753234470414       2.547637569808       8.693572053539
