ITEM: TIMESTEP
0
ITEM: NUMBER OF ATOMS
41
ITEM: BOX BOUNDS pp pp pp
0.0000000000000000e+00 7.4951030000000003e+00
0.0000000000000000e+00 7.4951780000000001e+00
0.0000000000000000e+00 2.0111915000000000e+01
ITEM: ATOMS id x y z fx fy fz 
1 0.784255 2.65996 1.06711 -2.42121 0.49045 -4.13361 
2 4.49653 2.66023 1.07237 2.7956 0.288987 -4.07047 
3 6.38233 0.791851 1.06779 0.110204 -0.176462 -5.34602 
4 0.761841 6.41457 1.06499 0.135012 0.00165479 -5.3089 
5 2.64233 4.51721 1.0679 -0.539046 2.45392 -4.18724 
6 4.5108 6.41436 1.06716 0.0757763 -0.0884499 -5.29268 
7 6.38204 4.53925 1.0654 0.0151422 -0.0697241 -5.34973 
8 0.758552 0.787765 2.74605 0.621011 -0.186134 12.8481 
9 2.64342 2.65803 2.76029 -1.05073 1.06204 15.9953 
10 4.51661 0.784909 2.75547 0.0293179 -0.00742342 12.2222 
11 6.39148 2.66542 2.72788 -0.871522 -0.0499831 14.4231 
12 2.63636 6.40582 2.72685 0.0515893 0.854444 14.5288 
13 4.51419 4.54369 2.74696 0.16642 -0.66348 12.7776 
14 6.38222 6.41447 2.74582 0.22617 -0.21126 14.2923 
15 0.742338 2.67176 4.48047 -2.53582 -0.248949 -4.22871 
16 2.63269 0.756602 4.48115 -0.128855 -0.76101 -5.78645 
17 4.54535 2.66905 4.48153 0.705697 0.0665991 -5.84433 
18 6.39143 0.793065 4.50617 0.325418 -1.06489 -2.97547 
19 0.761072 6.40893 4.49742 -0.739047 -0.578546 -0.70586 
20 2.62917 4.5588 4.47959 0.306994 2.60616 -4.14533 
21 4.50843 6.40552 4.50638 1.0627 -0.364842 -3.00335 
22 6.38782 4.54019 4.49844 0.568032 0.778881 -0.769002 
23 0.776379 0.795333 6.24153 10.9955 0.97825 -2.36397 
24 4.50269 0.798976 6.22093 -13.3825 13.372 11.405 
25 6.39308 2.66964 6.26883 -13.5119 0.0861889 -9.02572 
26 0.762691 4.53852 6.2592 0.414956 -0.383486 -13.8281 
27 2.6312 6.40351 6.267 -0.0499233 13.424 -8.86557 
28 4.50532 4.52484 6.24154 -0.914199 -10.9637 -2.40507 
29 0.78424 2.6529 7.95643 28.9158 -12.4889 6.15529 
30 0.795085 6.43954 7.92121 7.57596 10.5435 10.3541 
31 2.64801 4.5168 7.95615 12.5219 -28.9326 6.17827 
32 4.48023 6.4356 7.90551 -9.21842 10.9171 10.9276 
33 6.35626 4.50804 7.92095 -10.465 -7.75111 10.398 
34 2.64224 0.806129 1.07125 -0.34148 -2.89389 -4.03512 
35 0.757719 4.5436 2.73775 0.776637 -0.750156 13.3365 
36 2.63686 2.66457 6.0931 9.12603 -9.14074 33.95 
37 6.38454 6.41205 6.26224 1.44509 -1.43352 -16.3875 
38 6.36099 0.819001 7.90624 -10.9103 9.37239 10.9341 
39 2.65119 0.838385 7.89326 -22.2508 -108.032 -83.661 
40 4.46297 2.65013 7.89408 108.012 22.2587 -83.641 
41 2.75323 2.54764 8.69357 -97.6482 97.6861 74.6339 
ITEM: TIMESTEP
1
ITEM: NUMBER OF ATOMS
41
ITEM: BOX BOUNDS pp pp pp
0.0000000000000000e+00 7.4951030000000003e+00
0.0000000000000000e+00 7.4951780000000001e+00
0.0000000000000000e+00 2.0111915000000000e+01
ITEM: ATOMS id x y z fx fy fz 
1 0.784255 2.65996 1.06711 -2.42121 0.49045 -4.13362 
2 4.49653 2.66023 1.07237 2.7956 0.288987 -4.07047 
3 6.38233 0.791851 1.06779 0.110203 -0.176462 -5.34602 
4 0.761841 6.41457 1.06499 0.135012 0.0016558 -5.3089 
5 2.64233 4.51721 1.0679 -0.539046 2.45392 -4.18725 
6 4.5108 6.41436 1.06716 0.0757762 -0.0884491 -5.29268 
7 6.38204 4.53925 1.0654 0.0151407 -0.0697245 -5.34973 
8 0.758552 0.787765 2.74605 0.62101 -0.186133 12.8481 
9 2.64342 2.65803 2.76029 -1.05072 1.06204 15.9953 
10 4.51661 0.784909 2.75547 0.0293175 -0.00742291 12.2222 
11 6.39148 2.66542 2.72788 -0.871522 -0.0499825 14.4231 
12 2.63636 6.40582 2.72685 0.0515888 0.854445 14.5288 
13 4.51419 4.54369 2.74696 0.16642 -0.66348 12.7776 
14 6.38222 6.41447 2.74582 0.226168 -0.211257 14.2923 
15 0.742338 2.67176 4.48047 -2.53582 -0.24895 -4.22872 
16 2.63269 0.756602 4.48115 -0.128855 -0.761013 -5.78645 
17 4.54535 2.66905 4.48153 0.7057 0.0665987 -5.84433 
18 6.39143 0.793065 4.50617 0.325417 -1.06489 -2.97546 
19 0.761072 6.40893 4.49742 -0.739048 -0.578542 -0.705864 
20 2.62917 4.5588 4.47959 0.306994 2.60617 -4.14534 
21 4.50843 6.40552 4.50638 1.0627 -0.36484 -3.00334 
22 6.38782 4.54019 4.49844 0.568029 0.778883 -0.769007 
23 0.776379 0.795333 6.24153 10.9956 0.978247 -2.36397 
24 4.50269 0.798976 6.22093 -13.3825 13.372 11.4051 
25 6.39308 2.66964 6.26883 -13.512 0.0861939 -9.02572 
26 0.762691 4.53852 6.2592 0.41496 -0.383488 -13.8281 
27 2.6312 6.40351 6.267 -0.0499286 13.4241 -8.86557 
28 4.50532 4.52484 6.24154 -0.914196 -10.9637 -2.40507 
29 0.78424 2.6529 7.95643 28.9158 -12.489 6.15531 
30 0.795085 6.43954 7.92121 7.57596 10.5435 10.3541 
31 2.64801 4.5168 7.95615 12.5219 -28.9326 6.17829 
32 4.48023 6.4356 7.90551 -9.2184 10.9171 10.9276 
33 6.35626 4.50804 7.92095 -10.465 -7.7511 10.398 
34 2.64224 0.806129 1.07125 -0.34148 -2.89389 -4.03512 
35 0.757719 4.5436 2.73775 0.77664 -0.750159 13.3365 
36 2.63686 2.66457 6.0931 9.126 -9.1407 33.9499 
37 6.38454 6.41205 6.26224 1.44509 -1.43352 -16.3875 
38 6.36099 0.819001 7.90624 -10.9102 9.37237 10.9341 
39 2.65119 0.838385 7.89326 -22.2508 -108.032 -83.661 
40 4.46297 2.65013 7.89408 108.012 22.2587 -83.6411 
41 2.75323 2.54764 8.69357 -97.6482 97.6861 74.6339 
ITEM: TIMESTEP
2
ITEM: NUMBER OF ATOMS
41
ITEM: BOX BOUNDS pp pp pp
0.0000000000000000e+00 7.4951030000000003e+00
0.0000000000000000e+00 7.4951780000000001e+00
0.0000000000000000e+00 2.0111915000000000e+01
ITEM: ATOMS id x y z fx fy fz 
1 0.784222 2.65997 1.06705 -2.41434 0.488442 -4.09524 
2 4.49657 2.66024 1.07232 2.78365 0.287923 -4.03232 
3 6.38233 0.791848 1.06772 0.111212 -0.176882 -5.30515 
4 0.761843 6.41457 1.06492 0.13397 0.000166597 -5.2681 
5 2.64232 4.51725 1.06784 -0.536977 2.44701 -4.14879 
6 4.51081 6.41436 1.06709 0.0763887 -0.0894952 -5.25186 
7 6.38204 4.53925 1.06532 0.016636 -0.0687479 -5.30886 
8 0.75856 0.787762 2.74623 0.61559 -0.187372 12.7821 
9 2.64341 2.65804 2.76051 -1.04724 1.05855 15.9073 
10 4.51661 0.784909 2.75564 0.031034 -0.00919857 12.1553 
11 6.39147 2.66542 2.72808 -0.867633 -0.0499454 14.3524 
12 2.63636 6.40583 2.72705 0.0515262 0.850456 14.4579 
13 4.51419 4.54368 2.74714 0.167691 -0.65809 12.7116 
14 6.38222 6.41447 2.74602 0.226782 -0.211983 14.2231 
15 0.742304 2.67176 4.48041 -2.49582 -0.252661 -4.16567 
16 2.63268 0.756591 4.48107 -0.122879 -0.72875 -5.72738 
17 4.54536 2.66905 4.48145 0.673505 0.0608211 -5.78528 
18 6.39143 0.79305 4.50613 0.314748 -1.06017 -2.93924 
19 0.761062 6.40892 4.49741 -0.733006 -0.570854 -0.700993 
20 2.62918 4.55884 4.47953 0.310639 2.56604 -4.08246 
21 4.50844 6.40551 4.50633 1.05798 -0.353951 -2.96704 
22 6.38783 4.54021 4.49843 0.560376 0.77272 -0.764194 
23 0.776529 0.795346 6.2415 10.8989 0.978727 -2.39551 
24 4.50251 0.799159 6.22109 -13.306 13.2955 11.299 
25 6.3929 2.66964 6.26871 -13.3644 0.0823973 -9.03182 
26 0.762696 4.53851 6.25901 0.427633 -0.396165 -13.7342 
27 2.6312 6.40369 6.26688 -0.0461363 13.2771 -8.87192 
28 4.5053 4.52469 6.24151 -0.914718 -10.8672 -2.43637 
29 0.784635 2.65273 7.95652 28.6552 -12.4602 6.04784 
30 0.795189 6.43968 7.92135 7.54688 10.4682 10.3142 
31 2.64818 4.51641 7.95624 12.4929 -28.6715 6.07088 
32 4.48011 6.43575 7.90566 -9.19154 10.8445 10.8834 
33 6.35611 4.50794 7.9211 -10.3901 -7.72156 10.358 
34 2.64223 0.806089 1.0712 -0.340384 -2.88179 -3.9969 
35 0.757729 4.54359 2.73793 0.770537 -0.744168 13.2721 
36 2.63698 2.66445 6.09356 9.09942 -9.11417 33.7669 
37 6.38456 6.41203 6.26201 1.42913 -1.41755 -16.2935 
38 6.36084 0.819128 7.90638 -10.838 9.34541 10.8896 
39 2.65088 0.83691 7.89212 -22.0621 -106.48 -82.8956 
40 4.46444 2.65043 7.89293 106.46 22.0696 -82.8767 
41 2.7519 2.54897 8.69459 -96.2415 96.2788 73.5835 
ITEM: TIMESTEP
3
ITEM: NUMBER OF ATOMS
41
ITEM: BOX BOUNDS pp pp pp
0.0000000000000000e+00 7.4951030000000003e+00
0.0000000000000000e+00 7.4951780000000001e+00
0.0000000000000000e+00 2.0111915000000000e+01
ITEM: ATOMS id x y z fx fy fz 
1 0.784156 2.65998 1.06694 -2.40049 0.484408 -4.01811 
2 4.49664 2.66025 1.07221 2.75964 0.285789 -3.95565 
3 6.38234 0.791843 1.06757 0.113231 -0.177731 -5.22296 
4 0.761847 6.41457 1.06477 0.131873 -0.00281891 -5.18604 
5 2.64231 4.51731 1.06773 -0.53282 2.4331 -4.07149 
6 4.51081 6.41435 1.06694 0.0776263 -0.0915898 -5.1698 
7 6.38204 4.53925 1.06518 0.0196316 -0.0667829 -5.22666 
8 0.758577 0.787757 2.74658 0.604689 -0.189823 12.6493 
9 2.64338 2.65807 2.76095 -1.04024 1.05153 15.7302 
10 4.51661 0.784909 2.75597 0.0344748 -0.0127592 12.0209 
11 6.39145 2.66542 2.72848 -0.859791 -0.0498831 14.2101 
12 2.63636 6.40586 2.72745 0.051413 0.842416 14.3155 
13 4.5142 4.54366 2.74749 0.170206 -0.647251 12.5789 
14 6.38223 6.41446 2.74641 0.22799 -0.213415 14.0837 
15 0.742235 2.67175 4.4803 -2.41566 -0.260092 -4.03936 
16 2.63268 0.756571 4.48091 -0.110903 -0.664222 -5.60859 
17 4.54538 2.66905 4.48129 0.609112 0.0492424 -5.66655 
18 6.39144 0.793021 4.50604 0.29334 -1.05063 -2.86657 
19 0.761042 6.4089 4.49739 -0.720837 -0.555441 -0.691156 
20 2.62918 4.55891 4.47942 0.317934 2.48563 -3.95649 
21 4.50847 6.4055 4.50625 1.04846 -0.332099 -2.89421 
22 6.38784 4.54023 4.4984 0.545034 0.760308 -0.754474 
23 0.776831 0.795373 6.24143 10.7046 0.979395 -2.45872 
24 4.50214 0.799526 6.2214 -13.1526 13.1418 11.0868 
25 6.39253 2.66964 6.26846 -13.0684 0.0747858 -9.04449 
26 0.762708 4.5385 6.25863 0.452792 -0.421327 -13.5459 
27 2.6312 6.40406 6.26664 -0.0385357 12.9825 -8.88511 
28 4.50528 4.52439 6.24144 -0.915473 -10.6734 -2.4991 
29 0.785427 2.65238 7.95668 28.1377 -12.4033 5.83487 
30 0.795397 6.43997 7.92164 7.48758 10.3169 10.2339 
31 2.64852 4.51562 7.95641 12.4356 -28.1532 5.85801 
32 4.47985 6.43605 7.90596 -9.13693 10.699 10.7944 
33 6.35583 4.50773 7.92138 -10.2398 -7.66135 10.2773 
34 2.64222 0.80601 1.07109 -0.338185 -2.85746 -3.92007 
35 0.75775 4.54357 2.7383 0.758312 -0.732169 13.1425 
36 2.63723 2.6642 6.09449 9.04574 -9.06054 33.3991 
37 6.3846 6.41199 6.26156 1.39713 -1.38553 -16.1044 
38 6.36054 0.819387 7.90669 -10.6932 9.29061 10.8002 
39 2.65027 0.833968 7.88983 -21.6968 -103.408 -81.3729 
40 4.46738 2.65104 7.89064 103.39 21.7038 -81.356 
41 2.74924 2.55163 8.69662 -93.4539 93.4899 71.499 
ITEM: TIMESTEP
4
ITEM: NUMBER OF ATOMS
41
ITEM: BOX BOUNDS pp pp pp
0.0000000000000000e+00 7.4951030000000003e+00
0.0000000000000000e+00 7.4951780000000001e+00
0.0000000000000000e+00 2.0111915000000000e+01
ITEM: ATOMS id x y z fx fy fz 
1 0.784054 2.66 1.06677 -2.3795 0.47833 -3.90171 
2 4.49676 2.66026 1.07204 2.72333 0.28258 -3.83996 
3 6.38234 0.791836 1.06735 0.116265 -0.179028 -5.09887 
4 0.761852 6.41457 1.06455 0.1287 -0.00731911 -5.06211 
5 2.64228 4.51742 1.06755 -0.526556 2.412 -3.95482 
6 4.51081 6.41435 1.06672 0.0795114 -0.0947401 -5.04589 
7 6.38204 4.53925 1.06495 0.0241462 -0.0638121 -5.10252 
8 0.758603 0.787749 2.74711 0.588234 -0.1934 12.4488 
9 2.64334 2.65812 2.76161 -1.02969 1.04095 15.4624 
10 4.51662 0.784908 2.75648 0.0396362 -0.018106 11.818 
11 6.39141 2.66541 2.72908 -0.84788 -0.0498373 13.9953 
12 2.63636 6.40589 2.72805 0.0512887 0.830209 14.1005 
13 4.5142 4.54364 2.74802 0.17388 -0.630884 12.3787 
14 6.38224 6.41445 2.74701 0.229743 -0.215504 13.8729 
15 0.742133 2.67174 4.48013 -2.29532 -0.271189 -3.84997 
16 2.63268 0.756543 4.48068 -0.0929561 -0.5678 -5.42944 
17 4.5454 2.66906 4.48105 0.512901 0.0319024 -5.48747 
18 6.39145 0.792977 4.50592 0.261145 -1.0361 -2.75744 
19 0.761011 6.40888 4.49736 -0.702419 -0.532367 -0.67615 
20 2.6292 4.55901 4.47925 0.328824 2.36491 -3.76762 
21 4.50852 6.40549 4.50613 1.03395 -0.299236 -2.78483 
22 6.38787 4.54026 4.49837 0.52207 0.741518 -0.73964 
23 0.777283 0.795414 6.24133 10.4118 0.979501 -2.5534 
24 4.50159 0.800082 6.22187 -12.921 12.91 10.7694 
25 6.39198 2.66964 6.26808 -12.6244 0.0633437 -9.0641 
26 0.762727 4.53848 6.25805 0.489748 -0.458299 -13.2629 
27 2.6312 6.40461 6.26626 -0.0271129 12.5404 -8.90551 
28 4.50524 4.52394 6.24133 -0.915717 -10.3812 -2.59305 
29 0.786616 2.65186 7.95693 27.3741 -12.3192 5.52169 
30 0.795714 6.44041 7.92207 7.39623 10.0895 10.1121 
31 2.64905 4.51443 7.95665 12.3509 -27.3883 5.545 
32 4.47947 6.4365 7.90642 -9.05333 10.4813 10.6596 
33 6.35539 4.5074 7.92182 -10.014 -7.5686 10.1548 
34 2.64221 0.805889 1.07092 -0.334877 -2.82067 -3.80413 
35 0.757783 4.54354 2.73885 0.73997 -0.714164 12.9468 
36 2.63761 2.66381 6.0959 8.9641 -8.979 32.8456 
37 6.38466 6.41193 6.26088 1.34905 -1.33744 -15.8181 
38 6.36009 0.819779 7.90714 -10.4765 9.20671 10.6647 
39 2.64936 0.829596 7.88639 -21.1808 -98.904 -79.1189 
40 4.47175 2.65196 7.8872 98.8886 21.1868 -79.105 
41 2.74529 2.55558 8.69965 -89.3561 89.3903 68.4271 
ITEM: TIMESTEP
5
ITEM: NUMBER OF ATOMS
41
ITEM: BOX BOUNDS pp pp pp
0.0000000000000000e+00 7.4951030000000003e+00
0.0000000000000000e+00 7.4951780000000001e+00
0.0000000000000000e+00 2.0111915000000000e+01
ITEM: ATOMS id x y z fx fy fz 
1 0.783916 2.66003 1.06654 -2.35112 0.470181 -3.74542 
2 4.49692 2.66027 1.07182 2.67446 0.27829 -3.68465 
3 6.38235 0.791826 1.06706 0.120301 -0.180799 -4.93212 
4 0.76186 6.41457 1.06426 0.124418 -0.0133352 -4.89551 
5 2.64225 4.51756 1.06733 -0.518153 2.38347 -3.79817 
6 4.51082 6.41434 1.06643 0.0820792 -0.0989361 -4.87939 
7 6.38204 4.53924 1.06466 0.0301793 -0.0598083 -4.93563 
8 0.758637 0.787738 2.74784 0.566136 -0.197949 12.1795 
9 2.64328 2.65818 2.76251 -1.01556 1.02677 15.102 
10 4.51662 0.784907 2.75717 0.046493 -0.0252209 11.5454 
11 6.39136 2.66541 2.72989 -0.831736 -0.0498774 13.7069 
12 2.63637 6.40594 2.72887 0.0512204 0.813673 13.8117 
13 4.51421 4.5436 2.74874 0.178557 -0.608896 12.1096 
14 6.38225 6.41444 2.74781 0.231957 -0.218168 13.5892 
15 0.742 2.67172 4.4799 -2.13497 -0.285829 -3.5982 
16 2.63267 0.75651 4.48036 -0.0691222 -0.440255 -5.18928 
17 4.54543 2.66906 4.48073 0.385648 0.00889584 -5.24739 
18 6.39147 0.792917 4.50576 0.218137 -1.01635 -2.61205 
19 0.76097 6.40885 4.49732 -0.677604 -0.501785 -0.65571 
20 2.62922 4.55915 4.47904 0.343182 2.20403 -3.51656 
21 4.50858 6.40547 4.50597 1.01423 -0.255333 -2.63911 
22 6.3879 4.5403 4.49833 0.491637 0.716196 -0.719418 
23 0.777887 0.795471 6.24118 10.0198 0.977745 -2.67882 
24 4.50084 0.80083 6.22249 -12.6104 12.5992 10.3492 
25 6.39124 2.66965 6.26755 -12.034 0.0481414 -9.09056 
26 0.762756 4.53846 6.25729 0.537448 -0.506037 -12.8851 
27 2.6312 6.40534 6.26574 -0.0119428 11.9525 -8.93304 
28 4.50519 4.52334 6.24118 -0.914159 -9.98985 -2.71752 
29 0.788203 2.65114 7.95725 26.3811 -12.2093 5.11676 
30 0.796143 6.44099 7.92266 7.27036 9.78653 9.94723 
31 2.64976 4.51284 7.95697 12.2401 -26.3938 5.14031 
32 4.47894 6.43711 7.90704 -8.93897 10.1926 10.4775 
33 6.35481 4.50696 7.92241 -9.71291 -7.44085 9.98911 
34 2.64219 0.805725 1.0707 -0.330451 -2.77114 -3.64849 
35 0.757825 4.5435 2.7396 0.715577 -0.690219 12.6837 
36 2.63813 2.66329 6.09781 8.85297 -8.86801 32.1052 
37 6.38474 6.41186 6.25997 1.28492 -1.2733 -15.4321 
38 6.35948 0.820313 7.90776 -10.1892 9.0919 10.4817 
39 2.64813 0.823864 7.8818 -20.5503 -93.1043 -76.1781 
40 4.47749 2.65319 7.88262 93.0919 20.555 -76.1678 
41 2.74011 2.56076 8.70361 -84.0622 84.0943 64.4449 
ITEM: TIMESTEP
6
ITEM: NUMBER OF ATOMS
41
ITEM: BOX BOUNDS pp pp pp
0.0000000000000000e+00 7.4951030000000003e+00
0.0000000000000000e+00 7.4951780000000001e+00
0.0000000000000000e+00 2.0111915000000000e+01
ITEM: ATOMS id x y z fx fy fz 
1 0.78374 2.66006 1.06626 -2.31501 0.459943 -3.54852 
2 4.49712 2.6603 1.07154 2.61266 0.272927 -3.48905 
3 6.38236 0.791812 1.06669 0.125336 -0.183078 -4.72184 
4 0.761869 6.41457 1.06389 0.118995 -0.020888 -4.68528 
5 2.64222 4.51774 1.06704 -0.50759 2.34717 -3.60082 
6 4.51082 6.41434 1.06606 0.0853738 -0.104179 -4.66943 
7 6.38204 4.53924 1.06429 0.0377461 -0.0547496 -4.72505 
8 0.758679 0.787723 2.74875 0.538302 -0.203228 11.84 
9 2.6432 2.65825 2.76364 -0.997797 1.00894 14.6465 
10 4.51662 0.784905 2.75803 0.054996 -0.0340636 11.2018 
11 6.3913 2.66541 2.73092 -0.811137 -0.0501037 13.3435 
12 2.63637 6.406 2.72991 0.0513061 0.792592 13.4477 
13 4.51423 4.54355 2.74965 0.183994 -0.581184 11.7705 
14 6.38227 6.41442 2.74883 0.234491 -0.221262 13.2304 
15 0.741839 2.6717 4.47963 -1.93499 -0.303806 -3.28534 
16 2.63267 0.756477 4.47997 -0.039566 -0.282851 -4.88758 
17 4.54546 2.66906 4.48034 0.228624 -0.0196021 -4.94576 
18 6.39148 0.79284 4.50557 0.164295 -0.991078 -2.43094 
19 0.76092 6.40881 4.49727 -0.64625 -0.463972 -0.629509 
20 2.62924 4.55932 4.47877 0.360789 2.00334 -3.20462 
21 4.50865 6.40545 4.50577 0.989016 -0.200363 -2.45757 
22 6.38793 4.54036 4.49828 0.454018 0.684193 -0.693475 
23 0.778639 0.795545 6.24098 9.52762 0.972244 -2.83372 
24 4.49989 0.801776 6.22327 -12.2196 12.208 9.83 
25 6.39034 2.66965 6.26687 -11.3005 0.0293358 -9.12296 
26 0.762796 4.53842 6.25632 0.594409 -0.563061 -12.4125 
27 2.63119 6.40623 6.26507 0.00681039 11.2221 -8.96678 
28 4.50512 4.52259 6.24098 -0.908936 -9.49868 -2.87121 
29 0.790184 2.65023 7.95763 25.181 -12.0745 4.63161 
30 0.796689 6.44173 7.9234 7.10727 9.40905 9.73719 
31 2.65068 4.51086 7.95736 12.1043 -25.1919 4.65547 
32 4.47827 6.43787 7.90782 -8.79201 9.83544 10.2462 
33 6.35408 4.5064 7.92316 -9.33782 -7.27535 9.77801 
34 2.64217 0.805517 1.07043 -0.324912 -2.70851 -3.45249 
35 0.757879 4.54345 2.74056 0.685257 -0.660455 12.3518 
36 2.6388 2.66263 6.10022 8.7102 -8.72534 31.1779 
37 6.38484 6.41176 6.25881 1.20491 -1.19326 -14.9427 
38 6.35872 0.820996 7.90855 -9.83363 8.94432 10.2493 
39 2.64659 0.816872 7.87608 -19.8477 -86.1913 -72.6118 
40 4.48448 2.65473 7.8769 86.1822 19.851 -72.6057 
41 2.7338 2.56708 8.70845 -77.7265 77.7561 59.6568 
ITEM: TIMESTEP
7
ITEM: NUMBER OF ATOMS
41
ITEM: BOX BOUNDS pp pp pp
0.0000000000000000e+00 7.4951030000000003e+00
0.0000000000000000e+00 7.4951780000000001e+00
0.0000000000000000e+00 2.0111915000000000e+01
ITEM: ATOMS id x y z fx fy fz 
1 0.783522 2.66011 1.06593 -2.27076 0.447589 -3.31032 
2 4.49737 2.66032 1.07121 2.53753 0.266495 -3.2525 
3 6.38237 0.791795 1.06624 0.131334 -0.185903 -4.46706 
4 0.76188 6.41457 1.06345 0.112392 -0.0299669 -4.43037 
5 2.64217 4.51796 1.0667 -0.494834 2.30268 -3.36206 
6 4.51083 6.41433 1.06562 0.0894462 -0.110439 -4.41505 
7 6.38205 4.53923 1.06384 0.0468331 -0.0486057 -4.46971 
8 0.75873 0.787704 2.74987 0.504647 -0.208896 11.429 
9 2.64311 2.65835 2.76502 -0.97634 0.987396 14.093 
10 4.51663 0.784902 2.75909 0.0650475 -0.0445494 10.7856 
11 6.39122 2.6654 2.73217 -0.785807 -0.0506586 12.9038 
12 2.63637 6.40608 2.73117 0.0516831 0.766697 13.0074 
13 4.51425 4.5435 2.75076 0.18985 -0.547655 11.36 
14 6.38229 6.4144 2.75008 0.23715 -0.224592 12.7943 
15 0.741657 2.67167 4.47932 -1.69603 -0.324787 -2.91355 
16 2.63266 0.756451 4.47951 -0.00454626 -0.0974055 -4.52409 
17 4.54548 2.66906 4.47987 0.043663 -0.0533114 -4.58232 
18 6.3915 0.792747 4.50534 0.0996402 -0.959975 -2.21511 
19 0.760859 6.40877 4.49721 -0.60826 -0.419384 -0.597205 
20 2.62928 4.5595 4.47847 0.381306 1.76347 -2.83395 
21 4.50874 6.40543 4.50554 0.957999 -0.134347 -2.24121 
22 6.38798 4.54042 4.49821 0.409671 0.645397 -0.661453 
23 0.779537 0.795636 6.24071 8.93495 0.960456 -3.01607 
24 4.49874 0.802927 6.2242 -11.7473 11.7353 9.21722 
25 6.38927 2.66965 6.26601 -10.4292 0.00723954 -9.15889 
26 0.762852 4.53836 6.25515 0.658836 -0.627598 -11.8451 
27 2.6312 6.40729 6.26423 0.0288264 10.3546 -9.00436 
28 4.50503 4.52169 6.24071 -0.897524 -8.90716 -3.05213 
29 0.792558 2.64909 7.95807 23.8 -11.9153 4.0803 
30 0.797359 6.44262 7.92432 6.90429 8.95917 9.47934 
31 2.65182 4.50848 7.9578 11.944 -23.809 4.10456 
32 4.47744 6.4388 7.90879 -8.61076 9.41328 9.96324 
33 6.3532 4.50572 7.92408 -8.89075 -7.06942 9.51887 
34 2.64214 0.805262 1.0701 -0.318258 -2.63235 -3.21543 
35 0.757944 4.54339 2.74172 0.64923 -0.625087 11.9494 
36 2.63962 2.6618 6.10316 8.53274 -8.54796 30.0645 
37 6.38495 6.41165 6.2574 1.10925 -1.09759 -14.3462 
38 6.35779 0.821839 7.90951 -9.4133 8.76224 9.96491 
39 2.64471 0.808746 7.86924 -19.1165 -78.3844 -68.4976 
40 4.4926 2.65661 7.87006 78.3789 19.1182 -68.4961 
41 2.72647 2.57441 8.71408 -70.5391 70.5661 54.1925 
ITEM: TIMESTEP
8
ITEM: NUMBER OF ATOMS
41
ITEM: BOX BOUNDS pp pp pp
0.0000000000000000e+00 7.4951030000000003e+00
0.0000000000000000e+00 7.4951780000000001e+00
0.0000000000000000e+00 2.0111915000000000e+01
ITEM: ATOMS id x y z fx fy fz 
1 0.783258 2.66016 1.06554 -2.21787 0.433106 -3.03018 
2 4.49766 2.66035 1.07083 2.44859 0.25902 -2.97441 
3 6.38238 0.791773 1.06572 0.138263 -0.189313 -4.16684 
4 0.761893 6.41457 1.06294 0.104577 -0.0405701 -4.12969 
5 2.64211 4.51822 1.06631 -0.479865 2.24948 -3.08124 
6 4.51084 6.41431 1.06511 0.0943524 -0.11769 -4.11532 
7 6.38205 4.53923 1.06332 0.0574356 -0.0413609 -4.16851 
8 0.758789 0.787679 2.75119 0.465124 -0.214487 10.9453 
9 2.64299 2.65846 2.76666 -0.951117 0.962053 13.4388 
10 4.51663 0.784897 2.76034 0.0764829 -0.0565312 10.2958 
11 6.39113 2.6654 2.73367 -0.755417 -0.0517307 12.3867 
12 2.63638 6.40617 2.73268 0.0525338 0.735667 12.4894 
13 4.51427 4.54343 2.75207 0.195654 -0.50824 10.8768 
14 6.38232 6.41438 2.75156 0.23966 -0.227882 12.2783 
15 0.74146 2.67163 4.47898 -1.41911 -0.348273 -2.48609 
16 2.63266 0.756439 4.47898 0.0355421 0.113565 -4.09904 
17 4.54549 2.66905 4.47934 -0.166696 -0.0918101 -4.15726 
18 6.39151 0.792635 4.50508 0.024236 -0.922739 -1.96628 
19 0.760788 6.40872 4.49714 -0.563645 -0.368741 -0.558456 
20 2.62932 4.55971 4.47814 0.404222 1.4854 -2.40785 
21 4.50886 6.40542 4.50528 0.920895 -0.05735 -1.99174 
22 6.38802 4.5405 4.49813 0.359323 0.599804 -0.622991 
23 0.780575 0.795748 6.24036 8.24171 0.939058 -3.22293 
24 4.49738 0.804289 6.22527 -11.1921 11.1796 8.5185 
25 6.38806 2.66965 6.26494 -9.42813 -0.0176238 -9.19383 
26 0.762929 4.53829 6.25377 0.728565 -0.697521 -11.1831 
27 2.6312 6.40849 6.26318 0.0535718 9.35793 -9.04124 
28 4.50493 4.52066 6.24035 -0.876628 -8.21527 -3.25731 
29 0.795321 2.64771 7.95854 22.2673 -11.7313 3.47928 
30 0.79816 6.44366 7.92542 6.6593 8.44035 9.17044 
31 2.65321 4.50572 7.95828 11.7587 -22.2741 3.50403 
32 4.47644 6.43989 7.90994 -8.39417 8.93114 9.62554 
33 6.35217 4.5049 7.92518 -8.37509 -6.82091 9.20844 
34 2.6421 0.804956 1.06973 -0.310509 -2.54216 -2.93675 
35 0.758019 4.54331 2.74311 0.607836 -0.584451 11.475 
36 2.64061 2.66081 6.10665 8.31672 -8.332 28.7678 
37 6.38508 6.41152 6.25573 0.998436 -0.986807 -13.6382 
38 6.3567 0.822856 7.91067 -8.93314 8.54454 9.62557 
39 2.6425 0.799645 7.86128 -18.3955 -69.9341 -63.9291 
40 4.5017 2.65883 7.8621 69.9322 18.3955 -63.9322 
41 2.71828 2.5826 8.72037 -62.7222 62.7468 48.205 
ITEM: TIMESTEP
9
ITEM: NUMBER OF ATOMS
41
ITEM: BOX BOUNDS pp pp pp
0.0000000000000000e+00 7.4951030000000003e+00
0.0000000000000000e+00 7.4951780000000001e+00
0.0000000000000000e+00 2.0111915000000000e+01
ITEM: ATOMS id x y z fx fy fz 
1 0.782944 2.66022 1.06511 -2.15574 0.416484 -2.70776 
2 4.49801 2.66039 1.07041 2.34537 0.250535 -2.6545 
3 6.3824 0.791746 1.06513 0.146044 -0.193342 -3.82045 
4 0.761908 6.41456 1.06235 0.095527 -0.0526517 -3.78229 
5 2.64204 4.51854 1.06587 -0.462663 2.18699 -2.75801 
6 4.51085 6.4143 1.06453 0.100145 -0.125864 -3.7695 
7 6.38206 4.53922 1.06273 0.0694965 -0.0330109 -3.82051 
8 0.758854 0.787649 2.75274 0.419757 -0.219368 10.388 
9 2.64286 2.6586 2.76856 -0.922027 0.932801 12.6811 
10 4.51665 0.784889 2.7618 0.0890311 -0.0697573 9.73131 
11 6.39102 2.66539 2.73543 -0.719591 -0.0535653 11.7916 
12 2.63639 6.40627 2.73445 0.0540973 0.699144 11.8932 
13 4.51429 4.54336 2.75361 0.200774 -0.462943 10.3203 
14 6.38235 6.41435 2.7533 0.241667 -0.23077 11.68 
15 0.741259 2.67158 4.47863 -1.10577 -0.373543 -2.00784 
16 2.63267 0.756455 4.47841 0.0801144 0.346651 -3.61349 
17 4.54546 2.66904 4.47875 -0.399023 -0.13449 -3.67161 
18 6.39151 0.792505 4.5048 -0.06177 -0.879144 -1.6872 
19 0.760708 6.40867 4.49706 -0.512626 -0.313131 -0.51301 
20 2.62938 4.55992 4.4778 0.428797 1.17062 -1.93122 
21 4.50899 6.40541 4.505 0.877492 0.0304825 -1.71188 
22 6.38807 4.54058 4.49805 0.304066 0.547617 -0.57781 
23 0.781741 0.795881 6.23991 7.4488 0.903784 -3.4501 
24 4.49579 0.805871 6.22647 -10.5531 10.54 7.74432 
25 6.38673 2.66965 6.26364 -8.30884 -0.0444042 -9.2203 
26 0.763032 4.53819 6.25219 0.801163 -0.770409 -10.427 
27 2.63121 6.40982 6.2619 0.0801817 8.24358 -9.06998 
28 4.5048 4.51949 6.23989 -0.842024 -7.42392 -3.48257 
29 0.798471 2.64605 7.95904 20.6131 -11.5204 2.84681 
30 0.799102 6.44485 7.92672 6.37118 7.8576 8.80669 
31 2.65487 4.50257 7.95877 11.5464 -20.6178 2.87213 
32 4.47525 6.44115 7.91131 -8.14229 8.39578 9.22973 
33 6.35099 4.50393 7.92648 -7.79582 -6.52867 8.84294 
34 2.64205 0.804597 1.06931 -0.30169 -2.43746 -2.61616 
35 0.758105 4.54323 2.74473 0.561611 -0.539072 10.9273 
36 2.64179 2.65963 6.11072 8.05731 -8.07257 27.2932 
37 6.38522 6.41138 6.2538 0.873219 -0.861654 -12.8142 
38 6.35543 0.824065 7.91203 -8.39985 8.29122 9.22789 
39 2.63989 0.789753 7.85224 -17.714 -61.1147 -59.0146 
40 4.51159 2.66143 7.85306 61.1161 17.7124 -59.0222 
41 2.70941 2.59148 8.72719 -54.5248 54.547 41.8677 
ITEM: TIMESTEP
10
ITEM: NUMBER OF ATOMS
41
ITEM: BOX BOUNDS pp pp pp
0.0000000000000000e+00 7.4951030000000003e+00
0.0000000000000000e+00 7.4951780000000001e+00
0.0000000000000000e+00 2.0111915000000000e+01
ITEM: ATOMS id x y z fx fy fz 
1 0.782575 2.66029 1.06465 -2.08374 0.39775 -2.34332 
2 4.49841 2.66043 1.06996 2.22744 0.241121 -2.2931 
3 6.38243 0.791713 1.06448 0.154581 -0.197991 -3.42764 
4 0.761925 6.41455 1.06171 0.085259 -0.0661525 -3.38765 
5 2.64196 4.51892 1.0654 -0.443243 2.11453 -2.39263 
6 4.51087 6.41428 1.06388 0.106854 -0.13488 -3.37738 
7 6.38207 4.53922 1.06208 0.0829452 -0.0236019 -3.42519 
8 0.758926 0.787612 2.75452 0.368719 -0.222703 9.75765 
9 2.6427 2.65876 2.77073 -0.888943 0.8995 11.8183 
10 4.51666 0.784877 2.76347 0.102259 -0.0838187 9.09253 
11 6.3909 2.66538 2.73745 -0.677933 -0.0564657 11.1193 
12 2.6364 6.40639 2.73649 0.0566691 0.65675 11.2194 
13 4.51433 4.54328 2.75538 0.204369 -0.411905 9.69082 
14 6.3824 6.41431 2.7553 0.24268 -0.232758 10.9977 
15 0.74107 2.67152 4.47829 -0.758416 -0.399569 -1.48607 
16 2.63268 0.756515 4.47779 0.128328 0.597245 -3.06985 
17 4.5454 2.66902 4.47812 -0.648681 -0.180478 -3.12772 
18 6.3915 0.792354 4.50451 -0.158108 -0.82914 -1.38214 
19 0.76062 6.40861 4.49697 -0.455779 -0.254178 -0.460787 
20 2.62945 4.56012 4.47747 0.453976 0.821468 -1.41135 
21 4.50914 6.40541 4.5047 0.827754 0.128879 -1.40591 
22 6.38813 4.54067 4.49795 0.245532 0.489393 -0.525796 
23 0.783017 0.796035 6.23932 6.55867 0.849304 -3.69177 
24 4.49399 0.807677 6.2278 -9.82957 9.81583 6.90851 
25 6.38531 2.66964 6.26206 -7.08726 -0.0718136 -9.22716 
26 0.763169 4.53806 6.2504 0.873877 -0.843533 -9.57772 
27 2.63122 6.41123 6.26035 0.107351 7.02751 -9.07946 
28 4.50466 4.51822 6.2393 -0.788432 -6.53552 -3.72209 
29 0.802004 2.64407 7.95952 18.8689 -11.2788 2.20278 
30 0.800194 6.4462 7.92823 6.04038 7.21816 8.38383 
31 2.65685 4.49903 7.95926 11.3034 -18.8715 2.22873 
32 4.47386 6.44259 7.91289 -7.85676 7.81618 8.77195 
33 6.34965 4.50281 7.928 -7.16013 -6.19309 8.41807 
34 2.642 0.804179 1.06886 -0.291869 -2.31779 -2.25398 
35 0.758201 4.54314 2.7466 0.511341 -0.489724 10.3059 
36 2.64317 2.65825 6.1154 7.74888 -7.76397 25.6495 
37 6.38537 6.41123 6.25161 0.734815 -0.723359 -11.8707 
38 6.35399 0.825486 7.91361 -7.82235 8.00384 8.768 
39 2.63686 0.77928 7.84213 -17.0875 -52.2155 -53.8763 
40 4.52207 2.66446 7.84294 52.22 17.0844 -53.888 
41 2.70007 2.60083 8.73436 -46.2163 46.2364 35.3708 
ITEM: TIMESTEP
11
ITEM: NUMBER OF ATOMS
41
ITEM: BOX BOUNDS pp pp pp
0.0000000000000000e+00 7.4951030000000003e+00
0.0000000000000000e+00 7.4951780000000001e+00
0.0000000000000000e+00 2.0111915000000000e+01
ITEM: ATOMS id x y z fx fy fz 
1 0.782143 2.66037 1.06416 -2.00122 0.376962 -1.93832 
2 4.49887 2.66048 1.06948 2.09458 0.23089 -1.89172 
3 6.38246 0.791672 1.06377 0.163699 -0.203216 -2.98923 
4 0.761942 6.41454 1.061 0.0738484 -0.0809148 -2.9462 
5 2.64187 4.51935 1.06491 -0.42165 2.03146 -1.98653 
6 4.51089 6.41425 1.06318 0.11446 -0.144576 -2.93979 
7 6.38209 4.53921 1.06137 0.0976139 -0.0132389 -2.98296 
8 0.759003 0.787565 2.75654 0.312445 -0.223416 9.05651 
9 2.64252 2.65895 2.77318 -0.851676 0.861942 10.8509 
10 4.51668 0.784859 2.76535 0.11548 -0.0980595 8.38162 
11 6.39076 2.66537 2.73975 -0.630082 -0.0608017 10.3727 
12 2.63641 6.40653 2.73881 0.0606074 0.608153 10.4709 
13 4.51437 4.5432 2.75739 0.205359 -0.355518 8.99077 
14 6.38245 6.41426 2.75758 0.242081 -0.233216 10.231 
15 0.740913 2.67144 4.47798 -0.380722 -0.424865 -0.931438 
16 2.63271 0.756638 4.47715 0.17895 0.859116 -2.47263 
17 4.54526 2.66898 4.47747 -0.909393 -0.228501 -2.53004 
18 6.39147 0.792182 4.50423 -0.26426 -0.772994 -1.05757 
19 0.760526 6.40856 4.49688 -0.394258 -0.194298 -0.402008 
20 2.62955 4.56029 4.47718 0.478251 0.441551 -0.858954 
21 4.50931 6.40544 4.50441 0.771975 0.237301 -1.08029 
22 6.38818 4.54078 4.49784 0.186145 0.426263 -0.467115 
23 0.784376 0.796211 6.23855 5.57637 0.769158 -3.94009 
24 4.49195 0.80971 6.22923 -9.02233 9.00792 6.02923 
25 6.38384 2.66963 6.26015 -5.78528 -0.0979534 -9.19901 
26 0.76335 4.53789 6.24842 0.94352 -0.913766 -8.63791 
27 2.63124 6.41269 6.25847 0.13316 5.73156 -9.05428 
28 4.5045 4.51687 6.23852 -0.709446 -5.55517 -3.96804 
29 0.805912 2.64173 7.95998 17.0652 -11.001 1.56832 
30 0.801445 6.44769 7.92997 5.66939 6.53185 7.89749 
31 2.65919 4.49513 7.95973 11.0241 -17.0658 1.59494 
32 4.47223 6.44421 7.91471 -7.54139 7.20395 8.24856 
33 6.34817 4.50153 7.92974 -6.47775 -5.81663 7.9295 
34 2.64194 0.803699 1.0684 -0.281145 -2.1829 -1.85173 
35 0.758307 4.54304 2.74874 0.458201 -0.437563 9.61198 
36 2.64477 2.65664 6.12071 7.38517 -7.39993 23.8507 
37 6.38552 6.41108 6.24915 0.585131 -0.573879 -10.8058 
38 6.35237 0.827144 7.91543 -7.21213 7.68613 8.24227 
39 2.63332 0.768463 7.83097 -16.5152 -43.5296 -48.6469 
40 4.53288 2.668 7.83178 43.5364 16.5109 -48.6622 
41 2.69049 2.6104 8.74169 -38.0742 38.0927 28.9135 
ITEM: TIMESTEP
12
ITEM: NUMBER OF ATOMS
41
ITEM: BOX BOUNDS pp pp pp
0.0000000000000000e+00 7.4951030000000003e+00
0.0000000000000000e+00 7.4951780000000001e+00
0.0000000000000000e+00 2.0111915000000000e+01
ITEM: ATOMS id x y z fx fy fz 
1 0.781642 2.66047 1.06368 -1.90765 0.354262 -1.4962 