 # LAMMPS data file written by Ovito Pyth
 
          41  atoms
           3  atom types
 
      0.000000000000       7.495103000000  xlo xhi
      0.000000000000       7.495178000000  ylo yhi
      0.000000000000      20.111915000000  zlo zhi
 
Masses
 
            1   63.54600000             # Cu
            2   58.69340000             # Ni
            3   15.99900000             # O
 
Atoms # charge
 
         1    1   0.000000        0.768294019922       2.659382096384       1.052296878960
         2    1   0.000000        4.512826093029       2.660726407616       1.032484576029
         3    1   0.000000        6.381219666428       0.793732066137       1.048208297351
         4    1   0.000000        0.767295654033       6.411399505810       1.042635273547
         5    1   0.000000        2.645155101285       4.530410463409       1.046354358867
         6    1   0.000000        4.511422358205       6.413180680343       1.053433271799
         7    1   0.000000        6.381839808591       4.530574244160       1.043451417691
         8    1   0.000000        0.765897876490       0.785861490892       2.722138201330
         9    1   0.000000        2.648728912934       2.661383112094       2.729374374506
        10    1   0.000000        4.512344771103       0.797802067243       2.730770752383
        11    1   0.000000        6.379182167924       2.664371948695       2.725959655032
        12    1   0.000000        2.637057239432       6.409026951617       2.722243509613
        13    1   0.000000        4.515363268312       4.527559532456       2.725043475499
        14    1   0.000000        6.388590580735       6.408389948217       2.717303353650
        15    1   0.000000        0.761057687279       2.667113585700       4.475439121225
        16    1   0.000000        2.629774306785       0.778350672652       4.469540121592
        17    1   0.000000        4.519827508393       2.668073520693       4.494045511207
        18    1   0.000000        6.396024014865       0.779219987123       4.472404966221
        19    1   0.000000        0.759596691002       6.403071767968       4.471102501264
        20    1   0.000000        2.631503050434       4.543453009707       4.472174514725
        21    1   0.000000        4.519816950581       6.404090209216       4.474882298818
        22    1   0.000000        6.397892687975       4.545957037057       4.477700884011
        23    1   0.000000        0.764775564191       0.779595478022       6.223317342263
        24    1   0.000000        4.516552692438       0.786255102767       6.187900243496
        25    1   0.000000        6.389344931800       2.663294862206       6.215106240807
        26    1   0.000000        0.763092846801       4.537526909177       6.252041508284
        27    1   0.000000        2.632615755985       6.408055679947       6.221781452420
        28    1   0.000000        4.516454980096       4.537474934246       6.214842596369
        29    1   0.000000        0.795202756644       2.633800965346       7.881614617452
        30    1   0.000000        0.794392620794       6.434686437590       7.915319399337
        31    1   0.000000        2.660343910417       4.515067561074       7.917361126630
        32    1   0.000000        4.484222546864       6.438218828461       7.883125343965
        33    1   0.000000        6.369289181421       4.517522271108       7.928663803530
        34    1   0.000000        2.645460467341       0.793486412418       1.045732957165
        35    1   0.000000        0.765295138990       4.536442627927       2.716828854967
        36    1   0.000000        2.638957318348       2.663791637147       6.187639568843
        37    1   0.000000        6.389476805389       6.406507485194       6.253619587559
        38    1   0.000000        6.367892599196       0.806900383539       7.919455942276
        39    2   0.000000        2.661080426638       0.808800840794       7.819802885177
        40    2   0.000000        4.492976659221       2.640336764616       7.843898663260
        41    3   0.000000        4.476744381691       2.622179513233       9.496904550880
