LAMMPS (3 Mar 2020)
# minimizing input file for REAX optimization
variable        dt equal 1.0

units           real
boundary        p p p
# needed for triclinic systems w large skew
box		tilt large

atom_style      charge
read_data       data.cu
  orthogonal box = (0 0 0) to (7.4951 7.49518 20.1119)
  1 by 1 by 1 MPI processor grid
  reading atoms ...
  41 atoms
  read_data CPU = 0.0011926 secs

mass		1 63.5463
mass		2 58.6934
mass		3 15.9999

pair_style	reax/c NULL safezone 2.4 mincap 200
pair_coeff	* * ffield.reax.temp Cu Ni O

neighbor	2 bin
neigh_modify	every 10 delay 0 check no

fix             reax all qeq/reax 1 0.0 10.0 1e-6 reax/c

timestep        ${dt}
timestep        1

thermo          1
thermo_style    custom step etotal pe atoms
thermo_modify   lost ignore

dump            3 all custom 1 forces.dat id x y z fx fy fz
dump_modify	3 sort id

# configuration output section
min_style       quickmin
minimize        1.0e-8 1.0e-6 1000 1000
WARNING: Using 'neigh_modify every 1 delay 0 check yes' setting during minimization (src/min.cpp:190)
Neighbor list info ...
  update every 1 steps, delay 0 steps, check yes
  max neighbors/atom: 2000, page size: 100000
  master list distance cutoff = 12
  ghost atom cutoff = 12
  binsize = 6, bins = 2 2 4
  2 neighbor lists, perpetual/occasional/extra = 2 0 0
  (1) pair reax/c, perpetual
      attributes: half, newton off, ghost
      pair build: half/bin/newtoff/ghost
      stencil: half/ghost/bin/3d/newtoff
      bin: standard
  (2) fix qeq/reax, perpetual, copy from (1)
      attributes: half, newton off, ghost
      pair build: copy
      stencil: none
      bin: none
Per MPI rank memory allocation (min/avg/max) = 62.66 | 62.66 | 62.66 Mbytes
Step TotEng PotEng Atoms 
       0   -3356.4378   -3356.4378       41 
       1   -3355.7316   -3356.4378       41 
       2   -3354.6948   -3357.8368       41 
       3   -3353.0104   -3360.5534       41 
       4   -3350.7078   -3364.4047       41 
       5   -3347.8549   -3369.1294       41 
       6   -3344.5469   -3374.4195       41 
       7   -3340.8902   -3379.9568       41 
       8   -3337.0425   -3385.4512       41 
       9   -3332.9487   -3390.6504       41 
      10   -3328.7339   -3395.3717       41 
      11   -3324.4575   -3399.5079       41 
      12   -3320.2739   -3403.0289       41 
      13   -3316.5974   -3405.9759       41 
      14   -3314.1989   -3408.4437       41 
      15   -3313.8006   -3410.5507       41 
      16   -3315.2468    -3412.404       41 
      17     -3317.55   -3414.0799       41 
      18   -3319.8681   -3415.6448       41 
      19   -3321.7874   -3417.1356       41 
      20   -3324.3332   -3418.5329       41 
      21   -3325.8903   -3419.8503       41 
      22   -3327.4531   -3421.0995       41 
      23   -3329.1273   -3422.2925       41 
      24   -3330.9926   -3423.4426       41 
      25   -3333.0862   -3424.5646       41 
      26   -3335.4006   -3425.6757       41 
      27   -3337.8786   -3426.7955       41 
      28   -3340.4171   -3427.9467       41 
      29   -3342.8731   -3429.1556       41 
      30   -3345.0806   -3430.4519       41 
      31    -3346.889   -3431.8689       41 
      32   -3348.2009   -3433.4427       41 
      33   -3348.9127   -3435.2113       41 
      34   -3349.2383   -3437.2138       41 
      35   -3349.1545   -3439.4962       41 
      36   -3348.7885   -3442.1174       41 
      37   -3348.2877   -3445.1591       41 
      38   -3347.7715    -3448.737       41 
      39   -3347.2275   -3452.9995       41 
      40   -3346.3768   -3458.0938       41 
      41   -3344.6841   -3464.0797       41 
      42   -3341.5374   -3470.8221       41 
      43   -3336.5917   -3477.9913       41 
      44   -3330.1044   -3485.2342       41 
      45   -3322.5715   -3492.2765       41 
      46   -3313.8519   -3498.8294       41 
      47   -3301.8499   -3502.8084       41 
      48   -3463.7521   -3504.6951       41 
      49   -3462.7307   -3506.0474       41 
      50   -3479.0819   -3506.9309       41 
      51    -3490.049   -3507.6021       41 
      52   -3491.2761   -3508.1747       41 
      53   -3491.2784   -3508.6939       41 
      54   -3491.3216   -3509.1651       41 
      55   -3491.3805   -3509.5969       41 
      56    -3491.598   -3510.0016       41 
      57   -3492.3652   -3510.4043       41 
      58   -3494.2275   -3510.8399       41 
      59   -3495.1836   -3511.3009       41 
      60   -3494.5672   -3511.7526       41 
      61   -3493.5326   -3512.1864       41 
      62   -3492.5977   -3512.6112       41 
      63     -3491.97   -3513.0397       41 
      64    -3491.693   -3513.4871       41 
      65   -3491.7344   -3513.9726       41 
      66   -3492.0045   -3514.5186       41 
      67   -3492.3897   -3515.1505       41 
      68   -3492.7667   -3515.8943       41 
      69     -3493.05   -3516.7751       41 
      70   -3493.1883   -3517.8147       41 
      71   -3493.1412    -3519.026       41 
      72   -3492.8743   -3520.4075       41 
      73   -3492.3491   -3521.9391       41 
      74    -3491.567   -3523.5768       41 
      75   -3490.4944   -3525.2579       41 
      76   -3489.1187   -3526.9098       41 
      77    -3487.444   -3528.4659       41 
      78   -3485.5143   -3529.8799       41 
      79   -3483.4513   -3531.1322       41 
      80   -3481.4769   -3532.2269       41 
      81    -3479.852   -3533.1814       41 
      82   -3478.7433   -3534.0156       41 
      83   -3478.1598   -3534.7467       41 
      84   -3478.0196   -3535.3874       41 
      85    -3478.258   -3535.9485       41 
      86   -3478.9161   -3536.4388       41 
      87   -3479.9723   -3536.8655       41 
      88   -3481.5032   -3537.2374       41 
      89   -3483.5814   -3537.5638       41 
      90   -3486.0807   -3537.8543       41 
      91   -3488.6856   -3538.1163       41 
      92   -3491.2917   -3538.3554       41 
      93   -3493.4232    -3538.577       41 
      94   -3495.1377   -3538.7828       41 
      95   -3496.6619   -3538.9731       41 
      96   -3497.4572   -3539.1492       41 
      97    -3498.231   -3539.3116       41 
      98   -3499.2198   -3539.4585       41 
      99   -3503.9455   -3539.5802       41 
     100   -3518.1334   -3539.6579       41 
     101   -3534.7975   -3539.6999       41 
     102   -3536.6667   -3539.7336       41 
     103   -3536.6555   -3539.7667       41 
     104   -3536.6338   -3539.7994       41 
     105   -3536.6127   -3539.8315       41 
     106   -3536.5915   -3539.8631       41 
     107     -3536.57   -3539.8941       41 
     108   -3536.5489   -3539.9246       41 
     109   -3536.5273   -3539.9544       41 
     110   -3536.5062   -3539.9837       41 
     111   -3536.4849   -3540.0124       41 
     112   -3536.4641   -3540.0404       41 
     113   -3536.4431   -3540.0678       41 
     114   -3536.4225   -3540.0946       41 
     115    -3536.402   -3540.1207       41 
     116    -3536.382   -3540.1461       41 
     117   -3536.3619   -3540.1709       41 
     118   -3536.3422   -3540.1949       41 
     119   -3536.3236   -3540.2183       41 
     120   -3536.3046    -3540.241       41 
     121   -3536.2862    -3540.263       41 
     122   -3536.2681   -3540.2843       41 
     123   -3536.2508   -3540.3049       41 
     124   -3536.2335   -3540.3247       41 
     125   -3536.2173   -3540.3438       41 
     126   -3536.2017   -3540.3622       41 
     127   -3536.1863     -3540.38       41 
     128    -3536.137    -3540.397       41 
     129   -3536.1951   -3540.4133       41 
     130   -3536.2395   -3540.4286       41 
     131   -3536.3546   -3540.4429       41 
     132   -3536.7308   -3540.4553       41 
     133   -3537.9187   -3540.4642       41 
     134   -3539.5889   -3540.4695       41 
     135   -3540.0423   -3540.4734       41 
     136   -3540.0742   -3540.4773       41 
     137   -3540.0694   -3540.4811       41 
     138   -3540.0718   -3540.4849       41 
     139   -3540.0719   -3540.4886       41 
     140   -3540.0714   -3540.4922       41 
     141   -3540.0705   -3540.4958       41 
     142   -3540.0694   -3540.4994       41 
     143   -3540.0683   -3540.5028       41 
     144    -3540.067   -3540.5062       41 
     145   -3540.0658   -3540.5096       41 
     146   -3540.0643   -3540.5129       41 
     147   -3540.0631   -3540.5161       41 
     148   -3540.0616   -3540.5192       41 
     149   -3540.0604   -3540.5223       41 
     150   -3540.0591   -3540.5253       41 
     151   -3540.0581   -3540.5282       41 
     152   -3540.0569   -3540.5312       41 
     153   -3540.1624   -3540.5343       41 
     154   -3540.2255    -3540.537       41 
     155   -3540.2376   -3540.5396       41 
     156   -3540.2455    -3540.542       41 
     157   -3540.2513   -3540.5443       41 
     158   -3540.2557   -3540.5465       41 
     159   -3540.2591   -3540.5487       41 
     160   -3540.2617   -3540.5507       41 
     161   -3540.2637   -3540.5528       41 
     162   -3540.2652   -3540.5547       41 
     163   -3540.2664   -3540.5566       41 
     164   -3540.2673   -3540.5585       41 
     165    -3540.268   -3540.5603       41 
     166   -3540.2687   -3540.5621       41 
     167   -3540.2692   -3540.5638       41 
     168   -3540.2695   -3540.5654       41 
     169   -3540.2698    -3540.567       41 
     170   -3540.2701   -3540.5686       41 
     171   -3540.2703   -3540.5701       41 
     172   -3540.2705   -3540.5715       41 
     173   -3540.2707   -3540.5729       41 
     174   -3540.2709   -3540.5743       41 
     175   -3540.2709   -3540.5756       41 
     176    -3540.271   -3540.5768       41 
     177   -3540.2711    -3540.578       41 
     178   -3540.2718   -3540.5791       41 
     179   -3540.2724   -3540.5802       41 
     180   -3540.2841   -3540.5811       41 
     181   -3540.3436   -3540.5819       41 
     182   -3540.5347   -3540.5822       41 
     183   -3540.5657   -3540.5824       41 
     184   -3540.5662   -3540.5826       41 
     185   -3540.5662   -3540.5828       41 
     186   -3540.5661    -3540.583       41 
     187   -3540.5661   -3540.5832       41 
     188    -3540.566   -3540.5834       41 
     189    -3540.566   -3540.5836       41 
     190    -3540.566   -3540.5838       41 
     191    -3540.566    -3540.584       41 
     192   -3540.5659   -3540.5842       41 
     193   -3540.5659   -3540.5844       41 
     194   -3540.5659   -3540.5846       41 
     195   -3540.5658   -3540.5848       41 
     196   -3540.5658    -3540.585       41 
     197   -3540.5658   -3540.5852       41 
     198   -3540.5658   -3540.5854       41 
     199   -3540.5658   -3540.5856       41 
     200   -3540.5658   -3540.5857       41 
     201   -3540.5658   -3540.5859       41 
     202   -3540.5658   -3540.5861       41 
     203   -3540.5657   -3540.5862       41 
     204   -3540.5658   -3540.5864       41 
     205   -3540.5657   -3540.5866       41 
     206   -3540.5657   -3540.5867       41 
     207   -3540.5658   -3540.5869       41 
     208   -3540.5657    -3540.587       41 
     209   -3540.5658   -3540.5872       41 
     210   -3540.5657   -3540.5873       41 
     211   -3540.5657   -3540.5875       41 
     212   -3540.5658   -3540.5876       41 
     213   -3540.5658   -3540.5877       41 
     214   -3540.5659   -3540.5879       41 
     215   -3540.5661    -3540.588       41 
     216   -3540.5672   -3540.5881       41 
     217    -3540.572   -3540.5882       41 
     218   -3540.5829   -3540.5883       41 
     219   -3540.5864   -3540.5883       41 
Loop time of 2.26536 on 1 procs for 219 steps with 41 atoms

98.3% CPU use with 1 MPI tasks x no OpenMP threads

Minimization stats:
  Stopping criterion = energy tolerance
  Energy initial, next-to-last, final = 
         -3356.4378229     -3540.58825873     -3540.58829278
  Force two-norm initial, final = 320.161 0.0963788
  Force max component initial, final = 240.225 0.0534432
  Final line search alpha, max atom move = 0 0
  Iterations, force evaluations = 219 219

MPI task timing breakdown:
Section |  min time  |  avg time  |  max time  |%varavg| %total
---------------------------------------------------------------
Pair    | 2.1553     | 2.1553     | 2.1553     |   0.0 | 95.14
Neigh   | 0.0023852  | 0.0023852  | 0.0023852  |   0.0 |  0.11
Comm    | 0.0030812  | 0.0030812  | 0.0030812  |   0.0 |  0.14
Output  | 0.029645   | 0.029645   | 0.029645   |   0.0 |  1.31
Modify  | 0.07287    | 0.07287    | 0.07287    |   0.0 |  3.22
Other   |            | 0.002087   |            |       |  0.09

Nlocal:    41 ave 41 max 41 min
Histogram: 1 0 0 0 0 0 0 0 0 0
Nghost:    1406 ave 1406 max 1406 min
Histogram: 1 0 0 0 0 0 0 0 0 0
Neighs:    11564 ave 11564 max 11564 min
Histogram: 1 0 0 0 0 0 0 0 0 0

Total # of neighbors = 11564
Ave neighs/atom = 282.049
Neighbor list builds = 1
Dangerous builds not checked

Please see the log.cite file for references relevant to this simulation

Total wall time: 0:00:02
