 # Fcc O oriented X=[100] Y=[010] Z=[001].
 
           2  atoms
           1  atom types
 
      0.000000000000       8.416000000000  xlo xhi
      0.000000000000       8.416000000000  ylo yhi
      0.000000000000       8.416000000000  zlo zhi
 
Masses
 
            1   15.99900000             # O
 
Atoms # charge
 
         1    1   0.000000        2.416000000000       0.000000000000       0.000000000000
         2    1   0.000000        3.624000000000       0.000000000000       0.000000000000
