ITEM: TIMESTEP
0
ITEM: NUMBER OF ATOMS
2
ITEM: BOX BOUNDS ff ff ff
0.0000000000000000e+00 8.4160000000000004e+00
0.0000000000000000e+00 8.4160000000000004e+00
0.0000000000000000e+00 8.4160000000000004e+00
ITEM: ATOMS id x y z fx fy fz 
1 2.416 0 0 -82.1411 0 0 
2 3.624 0 0 82.1411 0 0 
ITEM: TIMESTEP
1
ITEM: NUMBER OF ATOMS
2
ITEM: BOX BOUNDS ff ff ff
0.0000000000000000e+00 8.4160000000000004e+00
0.0000000000000000e+00 8.4160000000000004e+00
0.0000000000000000e+00 8.4160000000000004e+00
ITEM: ATOMS id x y z fx fy fz 
1 2.416 0 0 -82.1411 0 0 
2 3.624 0 0 82.1411 0 0 
ITEM: TIMESTEP
2
ITEM: NUMBER OF ATOMS
2
ITEM: BOX BOUNDS ff ff ff
0.0000000000000000e+00 8.4160000000000004e+00
0.0000000000000000e+00 8.4160000000000004e+00
0.0000000000000000e+00 8.4160000000000004e+00
ITEM: ATOMS id x y z fx fy fz 
1 2.41385 0 0 -72.8355 0 0 
2 3.62615 0 0 72.8355 0 0 
ITEM: TIMESTEP
3
ITEM: NUMBER OF ATOMS
2
ITEM: BOX BOUNDS ff ff ff
0.0000000000000000e+00 8.4160000000000004e+00
0.0000000000000000e+00 8.4160000000000004e+00
0.0000000000000000e+00 8.4160000000000004e+00
ITEM: ATOMS id x y z fx fy fz 
1 2.40956 0 0 -53.8362 0 0 
2 3.63044 0 0 53.8362 0 0 
ITEM: TIMESTEP
4
ITEM: NUMBER OF ATOMS
2
ITEM: BOX BOUNDS ff ff ff
0.0000000000000000e+00 8.4160000000000004e+00
0.0000000000000000e+00 8.4160000000000004e+00
0.0000000000000000e+00 8.4160000000000004e+00
ITEM: ATOMS id x y z fx fy fz 
1 2.40336 0 0 -25.6894 0 0 
2 3.63664 0 0 25.6894 0 0 
ITEM: TIMESTEP
5
ITEM: NUMBER OF ATOMS
2
ITEM: BOX BOUNDS ff ff ff
0.0000000000000000e+00 8.4160000000000004e+00
0.0000000000000000e+00 8.4160000000000004e+00
0.0000000000000000e+00 8.4160000000000004e+00
ITEM: ATOMS id x y z fx fy fz 
1 2.39575 0 0 9.58965 0 0 
2 3.64425 0 0 -9.58965 0 0 
ITEM: TIMESTEP
6
ITEM: NUMBER OF ATOMS
2
ITEM: BOX BOUNDS ff ff ff
0.0000000000000000e+00 8.4160000000000004e+00
0.0000000000000000e+00 8.4160000000000004e+00
0.0000000000000000e+00 8.4160000000000004e+00
ITEM: ATOMS id x y z fx fy fz 
1 2.39575 0 0 9.58965 0 0 
2 3.64425 0 0 -9.58965 0 0 
ITEM: TIMESTEP
7
ITEM: NUMBER OF ATOMS
2
ITEM: BOX BOUNDS ff ff ff
0.0000000000000000e+00 8.4160000000000004e+00
0.0000000000000000e+00 8.4160000000000004e+00
0.0000000000000000e+00 8.4160000000000004e+00
ITEM: ATOMS id x y z fx fy fz 
1 2.396 0 0 8.41906 0 0 
2 3.644 0 0 -8.41906 0 0 
ITEM: TIMESTEP
8
ITEM: NUMBER OF ATOMS
2
ITEM: BOX BOUNDS ff ff ff
0.0000000000000000e+00 8.4160000000000004e+00
0.0000000000000000e+00 8.4160000000000004e+00
0.0000000000000000e+00 8.4160000000000004e+00
ITEM: ATOMS id x y z fx fy fz 
1 2.3965 0 0 6.07898 0 0 
2 3.6435 0 0 -6.07898 0 0 
ITEM: TIMESTEP
9
ITEM: NUMBER OF ATOMS
2
ITEM: BOX BOUNDS ff ff ff
0.0000000000000000e+00 8.4160000000000004e+00
0.0000000000000000e+00 8.4160000000000004e+00
0.0000000000000000e+00 8.4160000000000004e+00
ITEM: ATOMS id x y z fx fy fz 
1 2.39722 0 0 2.71451 0 0 
2 3.64278 0 0 -2.71451 0 0 
ITEM: TIMESTEP
10
ITEM: NUMBER OF ATOMS
2
ITEM: BOX BOUNDS ff ff ff
0.0000000000000000e+00 8.4160000000000004e+00
0.0000000000000000e+00 8.4160000000000004e+00
0.0000000000000000e+00 8.4160000000000004e+00
ITEM: ATOMS id x y z fx fy fz 
1 2.3981 0 0 -1.38596 0 0 
2 3.6419 0 0 1.38596 0 0 
ITEM: TIMESTEP
11
ITEM: NUMBER OF ATOMS
2
ITEM: BOX BOUNDS ff ff ff
0.0000000000000000e+00 8.4160000000000004e+00
0.0000000000000000e+00 8.4160000000000004e+00
0.0000000000000000e+00 8.4160000000000004e+00
ITEM: ATOMS id x y z fx fy fz 
1 2.3981 0 0 -1.38596 0 0 
2 3.6419 0 0 1.38596 0 0 
ITEM: TIMESTEP
12
ITEM: NUMBER OF ATOMS
2
ITEM: BOX BOUNDS ff ff ff
0.0000000000000000e+00 8.4160000000000004e+00
0.0000000000000000e+00 8.4160000000000004e+00
0.0000000000000000e+00 8.4160000000000004e+00
ITEM: ATOMS id x y z fx fy fz 
1 2.39807 0 0 -1.21733 0 0 
2 3.64193 0 0 1.21733 0 0 
ITEM: TIMESTEP
13
ITEM: NUMBER OF ATOMS
2
ITEM: BOX BOUNDS ff ff ff
0.0000000000000000e+00 8.4160000000000004e+00
0.0000000000000000e+00 8.4160000000000004e+00
0.0000000000000000e+00 8.4160000000000004e+00
ITEM: ATOMS id x y z fx fy fz 
1 2.39799 0 0 -0.880032 0 0 
2 3.64201 0 0 0.880032 0 0 
ITEM: TIMESTEP
14
ITEM: NUMBER OF ATOMS
2
ITEM: BOX BOUNDS ff ff ff
0.0000000000000000e+00 8.4160000000000004e+00
0.0000000000000000e+00 8.4160000000000004e+00
0.0000000000000000e+00 8.4160000000000004e+00
ITEM: ATOMS id x y z fx fy fz 
1 2.39789 0 0 -0.394532 0 0 
2 3.64211 0 0 0.394532 0 0 
ITEM: TIMESTEP
15
ITEM: NUMBER OF ATOMS
2
ITEM: BOX BOUNDS ff ff ff
0.0000000000000000e+00 8.4160000000000004e+00
0.0000000000000000e+00 8.4160000000000004e+00
0.0000000000000000e+00 8.4160000000000004e+00
ITEM: ATOMS id x y z fx fy fz 
1 2.39776 0 0 0.198185 0 0 
2 3.64224 0 0 -0.198185 0 0 
ITEM: TIMESTEP
16
ITEM: NUMBER OF ATOMS
2
ITEM: BOX BOUNDS ff ff ff
0.0000000000000000e+00 8.4160000000000004e+00
0.0000000000000000e+00 8.4160000000000004e+00
0.0000000000000000e+00 8.4160000000000004e+00
ITEM: ATOMS id x y z fx fy fz 
1 2.39776 0 0 0.198185 0 0 
2 3.64224 0 0 -0.198185 0 0 
ITEM: TIMESTEP
17
ITEM: NUMBER OF ATOMS
2
ITEM: BOX BOUNDS ff ff ff
0.0000000000000000e+00 8.4160000000000004e+00
0.0000000000000000e+00 8.4160000000000004e+00
0.0000000000000000e+00 8.4160000000000004e+00
ITEM: ATOMS id x y z fx fy fz 
1 2.39777 0 0 0.174058 0 0 
2 3.64223 0 0 -0.174058 0 0 
ITEM: TIMESTEP
18
ITEM: NUMBER OF ATOMS
2
ITEM: BOX BOUNDS ff ff ff
0.0000000000000000e+00 8.4160000000000004e+00
0.0000000000000000e+00 8.4160000000000004e+00
0.0000000000000000e+00 8.4160000000000004e+00
ITEM: ATOMS id x y z fx fy fz 
1 2.39778 0 0 0.125806 0 0 
2 3.64222 0 0 -0.125806 0 0 
ITEM: TIMESTEP
19
ITEM: NUMBER OF ATOMS
2
ITEM: BOX BOUNDS ff ff ff
0.0000000000000000e+00 8.4160000000000004e+00
0.0000000000000000e+00 8.4160000000000004e+00
0.0000000000000000e+00 8.4160000000000004e+00
ITEM: ATOMS id x y z fx fy fz 
1 2.39779 0 0 0.0563651 0 0 
2 3.64221 0 0 -0.0563651 0 0 
ITEM: TIMESTEP
20
ITEM: NUMBER OF ATOMS
2
ITEM: BOX BOUNDS ff ff ff
0.0000000000000000e+00 8.4160000000000004e+00
0.0000000000000000e+00 8.4160000000000004e+00
0.0000000000000000e+00 8.4160000000000004e+00
ITEM: ATOMS id x y z fx fy fz 
1 2.39781 0 0 -0.0283878 0 0 
2 3.64219 0 0 0.0283878 0 0 
ITEM: TIMESTEP
21
ITEM: NUMBER OF ATOMS
2
ITEM: BOX BOUNDS ff ff ff
0.0000000000000000e+00 8.4160000000000004e+00
0.0000000000000000e+00 8.4160000000000004e+00
0.0000000000000000e+00 8.4160000000000004e+00
ITEM: ATOMS id x y z fx fy fz 
1 2.39781 0 0 -0.0283878 0 0 
2 3.64219 0 0 0.0283878 0 0 
ITEM: TIMESTEP
22
ITEM: NUMBER OF ATOMS
2
ITEM: BOX BOUNDS ff ff ff
0.0000000000000000e+00 8.4160000000000004e+00
0.0000000000000000e+00 8.4160000000000004e+00
0.0000000000000000e+00 8.4160000000000004e+00
ITEM: ATOMS id x y z fx fy fz 
1 2.39781 0 0 -0.0249322 0 0 
2 3.64219 0 0 0.0249322 0 0 
ITEM: TIMESTEP
23
ITEM: NUMBER OF ATOMS
2
ITEM: BOX BOUNDS ff ff ff
0.0000000000000000e+00 8.4160000000000004e+00
0.0000000000000000e+00 8.4160000000000004e+00
0.0000000000000000e+00 8.4160000000000004e+00
ITEM: ATOMS id x y z fx fy fz 
1 2.39781 0 0 -0.018021 0 0 
2 3.64219 0 0 0.018021 0 0 
ITEM: TIMESTEP
24
ITEM: NUMBER OF ATOMS
2
ITEM: BOX BOUNDS ff ff ff
0.0000000000000000e+00 8.4160000000000004e+00
0.0000000000000000e+00 8.4160000000000004e+00
0.0000000000000000e+00 8.4160000000000004e+00
ITEM: ATOMS id x y z fx fy fz 
1 2.39781 0 0 -0.00807471 0 0 
2 3.64219 0 0 0.00807471 0 0 
ITEM: TIMESTEP
25
ITEM: NUMBER OF ATOMS
2
ITEM: BOX BOUNDS ff ff ff
0.0000000000000000e+00 8.4160000000000004e+00
0.0000000000000000e+00 8.4160000000000004e+00
0.0000000000000000e+00 8.4160000000000004e+00
ITEM: ATOMS id x y z fx fy fz 
1 2.3978 0 0 0.00406527 0 0 
2 3.6422 0 0 -0.00406527 0 0 
ITEM: TIMESTEP
26
ITEM: NUMBER OF ATOMS
2
ITEM: BOX BOUNDS ff ff ff
0.0000000000000000e+00 8.4160000000000004e+00
0.0000000000000000e+00 8.4160000000000004e+00
0.0000000000000000e+00 8.4160000000000004e+00
ITEM: ATOMS id x y z fx fy fz 
1 2.3978 0 0 0.00406527 0 0 
2 3.6422 0 0 -0.00406527 0 0 
ITEM: TIMESTEP
27
ITEM: NUMBER OF ATOMS
2
ITEM: BOX BOUNDS ff ff ff
0.0000000000000000e+00 8.4160000000000004e+00
0.0000000000000000e+00 8.4160000000000004e+00
0.0000000000000000e+00 8.4160000000000004e+00
ITEM: ATOMS id x y z fx fy fz 
1 2.3978 0 0 0.0035704 0 0 
2 3.6422 0 0 -0.0035704 0 0 
ITEM: TIMESTEP
28
ITEM: NUMBER OF ATOMS
2
ITEM: BOX BOUNDS ff ff ff
0.0000000000000000e+00 8.4160000000000004e+00
0.0000000000000000e+00 8.4160000000000004e+00
0.0000000000000000e+00 8.4160000000000004e+00
ITEM: ATOMS id x y z fx fy fz 
1 2.3978 0 0 0.00258067 0 0 
2 3.6422 0 0 -0.00258067 0 0 
ITEM: TIMESTEP
29
ITEM: NUMBER OF ATOMS
2
ITEM: BOX BOUNDS ff ff ff
0.0000000000000000e+00 8.4160000000000004e+00
0.0000000000000000e+00 8.4160000000000004e+00
0.0000000000000000e+00 8.4160000000000004e+00
ITEM: ATOMS id x y z fx fy fz 
1 2.3978 0 0 0.00115632 0 0 
2 3.6422 0 0 -0.00115632 0 0 
ITEM: TIMESTEP
30
ITEM: NUMBER OF ATOMS
2
ITEM: BOX BOUNDS ff ff ff
0.0000000000000000e+00 8.4160000000000004e+00
0.0000000000000000e+00 8.4160000000000004e+00
0.0000000000000000e+00 8.4160000000000004e+00
ITEM: ATOMS id x y z fx fy fz 
1 2.3978 0 0 -0.000582185 0 0 
2 3.6422 0 0 0.000582185 0 0 
ITEM: TIMESTEP
31
ITEM: NUMBER OF ATOMS
2
ITEM: BOX BOUNDS ff ff ff
0.0000000000000000e+00 8.4160000000000004e+00
0.0000000000000000e+00 8.4160000000000004e+00
0.0000000000000000e+00 8.4160000000000004e+00
ITEM: ATOMS id x y z fx fy fz 
1 2.3978 0 0 -0.000582185 0 0 
2 3.6422 0 0 0.000582185 0 0 
ITEM: TIMESTEP
32
ITEM: NUMBER OF ATOMS
2
ITEM: BOX BOUNDS ff ff ff
0.0000000000000000e+00 8.4160000000000004e+00
0.0000000000000000e+00 8.4160000000000004e+00
0.0000000000000000e+00 8.4160000000000004e+00
ITEM: ATOMS id x y z fx fy fz 
1 2.3978 0 0 -0.000511316 0 0 
2 3.6422 0 0 0.000511316 0 0 
ITEM: TIMESTEP
33
ITEM: NUMBER OF ATOMS
2
ITEM: BOX BOUNDS ff ff ff
0.0000000000000000e+00 8.4160000000000004e+00
0.0000000000000000e+00 8.4160000000000004e+00
0.0000000000000000e+00 8.4160000000000004e+00
ITEM: ATOMS id x y z fx fy fz 
1 2.3978 0 0 -0.000369577 0 0 
2 3.6422 0 0 0.000369577 0 0 
ITEM: TIMESTEP
34
ITEM: NUMBER OF ATOMS
2
ITEM: BOX BOUNDS ff ff ff
0.0000000000000000e+00 8.4160000000000004e+00
0.0000000000000000e+00 8.4160000000000004e+00
0.0000000000000000e+00 8.4160000000000004e+00
ITEM: ATOMS id x y z fx fy fz 
1 2.3978 0 0 -0.000165596 0 0 
2 3.6422 0 0 0.000165596 0 0 
ITEM: TIMESTEP
35
ITEM: NUMBER OF ATOMS
2
ITEM: BOX BOUNDS ff ff ff
0.0000000000000000e+00 8.4160000000000004e+00
0.0000000000000000e+00 8.4160000000000004e+00
0.0000000000000000e+00 8.4160000000000004e+00
ITEM: ATOMS id x y z fx fy fz 
1 2.3978 0 0 8.33741e-05 0 0 
2 3.6422 0 0 -8.33741e-05 0 0 
ITEM: TIMESTEP
36
ITEM: NUMBER OF ATOMS
2
ITEM: BOX BOUNDS ff ff ff
0.0000000000000000e+00 8.4160000000000004e+00
0.0000000000000000e+00 8.4160000000000004e+00
0.0000000000000000e+00 8.4160000000000004e+00
ITEM: ATOMS id x y z fx fy fz 
1 2.3978 0 0 8.33741e-05 0 0 
2 3.6422 0 0 -8.33741e-05 0 0 
ITEM: TIMESTEP
37
ITEM: NUMBER OF ATOMS
2
ITEM: BOX BOUNDS ff ff ff
0.0000000000000000e+00 8.4160000000000004e+00
0.0000000000000000e+00 8.4160000000000004e+00
0.0000000000000000e+00 8.4160000000000004e+00
ITEM: ATOMS id x y z fx fy fz 
1 2.3978 0 0 7.3225e-05 0 0 
2 3.6422 0 0 -7.3225e-05 0 0 
ITEM: TIMESTEP
38
ITEM: NUMBER OF ATOMS
2
ITEM: BOX BOUNDS ff ff ff
0.0000000000000000e+00 8.4160000000000004e+00
0.0000000000000000e+00 8.4160000000000004e+00
0.0000000000000000e+00 8.4160000000000004e+00
ITEM: ATOMS id x y z fx fy fz 
1 2.3978 0 0 5.29267e-05 0 0 
2 3.6422 0 0 -5.29267e-05 0 0 
ITEM: TIMESTEP
39
ITEM: NUMBER OF ATOMS
2
ITEM: BOX BOUNDS ff ff ff
0.0000000000000000e+00 8.4160000000000004e+00
0.0000000000000000e+00 8.4160000000000004e+00
0.0000000000000000e+00 8.4160000000000004e+00
ITEM: ATOMS id x y z fx fy fz 
1 2.3978 0 0 2.37148e-05 0 0 
2 3.6422 0 0 -2.37148e-05 0 0 
ITEM: TIMESTEP
40
ITEM: NUMBER OF ATOMS
2
ITEM: BOX BOUNDS ff ff ff
0.0000000000000000e+00 8.4160000000000004e+00
0.0000000000000000e+00 8.4160000000000004e+00
0.0000000000000000e+00 8.4160000000000004e+00
ITEM: ATOMS id x y z fx fy fz 
1 2.3978 0 0 -1.19399e-05 0 0 
2 3.6422 0 0 1.19399e-05 0 0 
ITEM: TIMESTEP
41
ITEM: NUMBER OF ATOMS
2
ITEM: BOX BOUNDS ff ff ff
0.0000000000000000e+00 8.4160000000000004e+00
0.0000000000000000e+00 8.4160000000000004e+00
0.0000000000000000e+00 8.4160000000000004e+00
ITEM: ATOMS id x y z fx fy fz 
1 2.3978 0 0 -1.19399e-05 0 0 
2 3.6422 0 0 1.19399e-05 0 0 
ITEM: TIMESTEP
42
ITEM: NUMBER OF ATOMS
2
ITEM: BOX BOUNDS ff ff ff
0.0000000000000000e+00 8.4160000000000004e+00
0.0000000000000000e+00 8.4160000000000004e+00
0.0000000000000000e+00 8.4160000000000004e+00
ITEM: ATOMS id x y z fx fy fz 
1 2.3978 0 0 -1.04865e-05 0 0 
2 3.6422 0 0 1.04865e-05 0 0 
ITEM: TIMESTEP
43
ITEM: NUMBER OF ATOMS
2
ITEM: BOX BOUNDS ff ff ff
0.0000000000000000e+00 8.4160000000000004e+00
0.0000000000000000e+00 8.4160000000000004e+00
0.0000000000000000e+00 8.4160000000000004e+00
ITEM: ATOMS id x y z fx fy fz 
1 2.3978 0 0 -7.57958e-06 0 0 
2 3.6422 0 0 7.57958e-06 0 0 
ITEM: TIMESTEP
44
ITEM: NUMBER OF ATOMS
2
ITEM: BOX BOUNDS ff ff ff
0.0000000000000000e+00 8.4160000000000004e+00
0.0000000000000000e+00 8.4160000000000004e+00
0.0000000000000000e+00 8.4160000000000004e+00
ITEM: ATOMS id x y z fx fy fz 
1 2.3978 0 0 -3.39617e-06 0 0 
2 3.6422 0 0 3.39617e-06 0 0 
ITEM: TIMESTEP
45
ITEM: NUMBER OF ATOMS
2
ITEM: BOX BOUNDS ff ff ff
0.0000000000000000e+00 8.4160000000000004e+00
0.0000000000000000e+00 8.4160000000000004e+00
0.0000000000000000e+00 8.4160000000000004e+00
ITEM: ATOMS id x y z fx fy fz 
1 2.3978 0 0 1.7099e-06 0 0 
2 3.6422 0 0 -1.7099e-06 0 0 
ITEM: TIMESTEP
46
ITEM: NUMBER OF ATOMS
2
ITEM: BOX BOUNDS ff ff ff
0.0000000000000000e+00 8.4160000000000004e+00
0.0000000000000000e+00 8.4160000000000004e+00
0.0000000000000000e+00 8.4160000000000004e+00
ITEM: ATOMS id x y z fx fy fz 
1 2.3978 0 0 1.7099e-06 0 0 
2 3.6422 0 0 -1.7099e-06 0 0 
ITEM: TIMESTEP
47
ITEM: NUMBER OF ATOMS
2
ITEM: BOX BOUNDS ff ff ff
0.0000000000000000e+00 8.4160000000000004e+00
0.0000000000000000e+00 8.4160000000000004e+00
0.0000000000000000e+00 8.4160000000000004e+00
ITEM: ATOMS id x y z fx fy fz 
1 2.3978 0 0 1.50175e-06 0 0 
2 3.6422 0 0 -1.50175e-06 0 0 
ITEM: TIMESTEP
48
ITEM: NUMBER OF ATOMS
2
ITEM: BOX BOUNDS ff ff ff
0.0000000000000000e+00 8.4160000000000004e+00
0.0000000000000000e+00 8.4160000000000004e+00
0.0000000000000000e+00 8.4160000000000004e+00
ITEM: ATOMS id x y z fx fy fz 
1 2.3978 0 0 1.08546e-06 0 0 
2 3.6422 0 0 -1.08546e-06 0 0 
ITEM: TIMESTEP
49
ITEM: NUMBER OF ATOMS
2
ITEM: BOX BOUNDS ff ff ff
0.0000000000000000e+00 8.4160000000000004e+00
0.0000000000000000e+00 8.4160000000000004e+00
0.0000000000000000e+00 8.4160000000000004e+00
ITEM: ATOMS id x y z fx fy fz 
1 2.3978 0 0 4.86361e-07 0 0 
2 3.6422 0 0 -4.86361e-07 0 0 
