# Cu_110-35/

84 atoms
1 atom types

 
0.0 10.845 xlo xhi
0.0 10.224764 ylo yhi
0.0 17.893337 zlo zhi

  0.000000    0.000000    0.000000    xy xz yz

Atoms  # charge

1 1 0.0 0.0 0.0 0.059272
2 1 0.0 1.8075 1.278096 1.223604
3 1 0.0 3.615 0.0 0.059272
4 1 0.0 5.4225 1.278096 1.223604
5 1 0.0 7.23 0.0 0.059272
6 1 0.0 9.0375 1.278096 1.223604
7 1 0.0 0.0 2.556191 0.059272
8 1 0.0 1.8075 3.834287 1.223604
9 1 0.0 3.615 2.556191 0.059272
10 1 0.0 5.4225 3.834287 1.223604
11 1 0.0 7.23 2.556191 0.059272
12 1 0.0 9.0375 3.834287 1.223604
13 1 0.0 0.0 5.112382 0.059272
14 1 0.0 1.8075 6.390478 1.223604
15 1 0.0 3.615 5.112382 0.059272
16 1 0.0 5.4225 6.390478 1.223604
17 1 0.0 7.23 5.112382 0.059272
18 1 0.0 9.0375 6.390478 1.223604
19 1 0.0 0.0 7.668573 0.059272
20 1 0.0 1.8075 8.946669 1.223604
21 1 0.0 3.615 7.668573 0.059272
22 1 0.0 5.4225 8.946669 1.223604
23 1 0.0 7.23 7.668573 0.059272
24 1 0.0 9.0375 8.946669 1.223604
25 1 0.0 0.0 0.0 2.55802
26 1 0.0 1.8075 1.278096 3.834514
27 1 0.0 3.615 0.0 2.55802
28 1 0.0 5.4225 1.278096 3.834514
29 1 0.0 7.23 0.0 2.55802
30 1 0.0 9.0375 1.278096 3.834514
31 1 0.0 0.0 2.556191 2.55802
32 1 0.0 1.8075 3.834287 3.834514
33 1 0.0 3.615 2.556191 2.55802
34 1 0.0 5.4225 3.834287 3.834514
35 1 0.0 7.23 2.556191 2.55802
36 1 0.0 9.0375 3.834287 3.834514
37 1 0.0 0.0 5.112382 2.55802
38 1 0.0 1.8075 6.390478 3.834514
39 1 0.0 3.615 5.112382 2.55802
40 1 0.0 5.4225 6.390478 3.834514
41 1 0.0 7.23 5.112382 2.55802
42 1 0.0 9.0375 6.390478 3.834514
43 1 0.0 0.0 7.668573 2.55802
44 1 0.0 1.8075 8.946669 3.834514
45 1 0.0 3.615 7.668573 2.55802
46 1 0.0 5.4225 8.946669 3.834514
47 1 0.0 7.23 7.668573 2.55802
48 1 0.0 9.0375 8.946669 3.834514
49 1 0.0 0.0 0.0 5.110603
50 1 0.0 1.8075 1.278096 6.445209
51 1 0.0 3.615 0.0 5.110603
52 1 0.0 5.4225 1.278096 6.445209
53 1 0.0 7.23 0.0 5.110603
54 1 0.0 9.0375 1.278096 6.445209
55 1 0.0 0.0 2.556191 5.110603
56 1 0.0 1.8075 3.834287 6.445209
57 1 0.0 3.615 2.556191 5.110603
58 1 0.0 5.4225 3.834287 6.445209
59 1 0.0 7.23 2.556191 5.110603
60 1 0.0 9.0375 3.834287 6.445209
61 1 0.0 0.0 5.112382 5.110603
62 1 0.0 1.8075 6.390478 6.445209
63 1 0.0 3.615 5.112382 5.110603
64 1 0.0 5.4225 6.390478 6.445209
65 1 0.0 7.23 5.112382 5.110603
66 1 0.0 9.0375 6.390478 6.445209
67 1 0.0 0.0 7.668573 5.110603
68 1 0.0 1.8075 8.946669 6.445209
69 1 0.0 3.615 7.668573 5.110603
70 1 0.0 5.4225 8.946669 6.445209
71 1 0.0 7.23 7.668573 5.110603
72 1 0.0 9.0375 8.946669 6.445209
73 1 0.0 0.0 0.0 7.608783
74 1 0.0 3.615 0.0 7.608783
75 1 0.0 7.23 0.0 7.608783
76 1 0.0 0.0 2.556191 7.608783
77 1 0.0 3.615 2.556191 7.608783
78 1 0.0 7.23 2.556191 7.608783
79 1 0.0 0.0 5.112382 7.608783
80 1 0.0 3.615 5.112382 7.608783
81 1 0.0 7.23 5.112382 7.608783
82 1 0.0 0.0 7.668573 7.608783
83 1 0.0 3.615 7.668573 7.608783
84 1 0.0 7.23 7.668573 7.608783
