ITEM: TIMESTEP
0
ITEM: NUMBER OF ATOMS
84
ITEM: BOX BOUNDS xy xz yz pp pp pp
0.0000000000000000e+00 1.0845000000000001e+01 0.0000000000000000e+00
0.0000000000000000e+00 1.0224764000000000e+01 0.0000000000000000e+00
0.0000000000000000e+00 1.7893336999999999e+01 0.0000000000000000e+00
ITEM: ATOMS id x y z fx fy fz 
1 0 0 0.059272 -1.06581e-13 4.66933e-05 -9.71998 
2 1.8075 1.2781 1.2236 -1.11022e-14 -7.97144e-05 19.2889 
3 3.615 0 0.059272 7.10283e-15 4.66933e-05 -9.71998 
4 5.4225 1.2781 1.2236 7.63972e-15 -7.97144e-05 19.2889 
5 7.23 0 0.059272 -6.39488e-14 4.66933e-05 -9.71998 
6 9.0375 1.2781 1.2236 3.01981e-13 -7.97144e-05 19.2889 
7 0 2.55619 0.059272 -6.66134e-14 4.66933e-05 -9.71998 
8 1.8075 3.83429 1.2236 -1.33227e-15 -7.97144e-05 19.2889 
9 3.615 2.55619 0.059272 -6.30399e-15 4.66933e-05 -9.71998 
10 5.4225 3.83429 1.2236 6.04855e-15 -7.97144e-05 19.2889 
11 7.23 2.55619 0.059272 -1.08452e-13 4.66933e-05 -9.71998 
12 9.0375 3.83429 1.2236 2.30926e-13 -7.97144e-05 19.2889 
13 0 5.11238 0.059272 -7.37188e-14 4.66933e-05 -9.71998 
14 1.8075 6.39048 1.2236 -1.11022e-14 -7.97144e-05 19.2889 
15 3.615 5.11238 0.059272 -7.54605e-15 4.66933e-05 -9.71998 
16 5.4225 6.39048 1.2236 5.05916e-15 -7.97144e-05 19.2889 
17 7.23 5.11238 0.059272 -7.16601e-14 4.66933e-05 -9.71998 
18 9.0375 6.39048 1.2236 2.0961e-13 -7.97144e-05 19.2889 
19 0 7.66857 0.059272 -8.17124e-14 4.66933e-05 -9.71998 
20 1.8075 8.94667 1.2236 -1.46549e-14 -7.97144e-05 19.2889 
21 3.615 7.66857 0.059272 -3.52496e-15 4.66933e-05 -9.71998 
22 5.4225 8.94667 1.2236 1.79735e-14 -7.97144e-05 19.2889 
23 7.23 7.66857 0.059272 -8.12293e-14 4.66933e-05 -9.71998 
24 9.0375 8.94667 1.2236 2.71783e-13 -7.97144e-05 19.2889 
25 0 0 2.55802 -1.73417e-13 7.04792e-05 0.783367 
26 1.8075 1.2781 3.83451 -7.54952e-15 -7.4948e-05 -0.0412941 
27 3.615 0 2.55802 2.33841e-15 7.04792e-05 0.783367 
28 5.4225 1.2781 3.83451 1.45512e-14 -7.4948e-05 -0.0412941 
29 7.23 0 2.55802 -9.10216e-14 7.04792e-05 0.783367 
30 9.0375 1.2781 3.83451 2.25597e-13 -7.4948e-05 -0.0412941 
31 0 2.55619 2.55802 -2.02505e-13 7.04792e-05 0.783367 
32 1.8075 3.83429 3.83451 -1.68754e-14 -7.4948e-05 -0.0412941 
33 3.615 2.55619 2.55802 2.88658e-15 7.04792e-05 0.783367 
34 5.4225 3.83429 3.83451 1.82773e-14 -7.4948e-05 -0.0412941 
35 7.23 2.55619 2.55802 -3.34177e-14 7.04792e-05 0.783367 
36 9.0375 3.83429 3.83451 2.04281e-13 -7.4948e-05 -0.0412941 
37 0 5.11238 2.55802 -1.95399e-13 7.04792e-05 0.783367 
38 1.8075 6.39048 3.83451 -1.55431e-14 -7.4948e-05 -0.0412941 
39 3.615 5.11238 2.55802 5.55112e-16 7.04792e-05 0.783367 
40 5.4225 6.39048 3.83451 2.03247e-14 -7.4948e-05 -0.0412941 
41 7.23 5.11238 2.55802 -3.32379e-14 7.04792e-05 0.783367 
42 9.0375 6.39048 3.83451 2.07834e-13 -7.4948e-05 -0.0412941 
43 0 7.66857 2.55802 -1.7053e-13 7.04792e-05 0.783367 
44 1.8075 8.94667 3.83451 -1.08802e-14 -7.4948e-05 -0.0412941 
45 3.615 7.66857 2.55802 -1.20737e-15 7.04792e-05 0.783367 
46 5.4225 8.94667 3.83451 1.80021e-14 -7.4948e-05 -0.0412941 
47 7.23 7.66857 2.55802 -3.53185e-14 7.04792e-05 0.783367 
48 9.0375 8.94667 3.83451 2.52243e-13 -7.4948e-05 -0.0412941 
49 0 0 5.1106 -3.19744e-14 7.04969e-05 -0.789759 
50 1.8075 1.2781 6.44521 -1.19904e-14 -7.97656e-05 -19.3494 
51 3.615 0 5.1106 4.656e-15 7.04969e-05 -0.789759 
52 5.4225 1.2781 6.44521 1.3994e-14 -7.97656e-05 -19.3494 
53 7.23 0 5.1106 -2.10235e-13 7.04969e-05 -0.789759 
54 9.0375 1.2781 6.44521 3.10862e-13 -7.97656e-05 -19.3494 
55 0 2.55619 5.1106 -7.10543e-15 7.04969e-05 -0.789759 
56 1.8075 3.83429 6.44521 8.88178e-16 -7.97656e-05 -19.3494 
57 3.615 2.55619 5.1106 -1.92901e-15 7.04969e-05 -0.789759 
58 5.4225 3.83429 6.44521 9.76357e-15 -7.97656e-05 -19.3494 
59 7.23 2.55619 5.1106 -2.16567e-13 7.04969e-05 -0.789759 
60 9.0375 3.83429 6.44521 2.89546e-13 -7.97656e-05 -19.3494 
61 0 5.11238 5.1106 -2.84217e-14 7.04969e-05 -0.789759 
62 1.8075 6.39048 6.44521 -1.06581e-14 -7.97656e-05 -19.3494 
63 3.615 5.11238 5.1106 4.91274e-15 7.04969e-05 -0.789759 
64 5.4225 6.39048 6.44521 3.76533e-15 -7.97656e-05 -19.3494 
65 7.23 5.11238 5.1106 -1.98815e-13 7.04969e-05 -0.789759 
66 9.0375 6.39048 6.44521 2.85993e-13 -7.97656e-05 -19.3494 
67 0 7.66857 5.1106 -3.19744e-14 7.04969e-05 -0.789759 
68 1.8075 8.94667 6.44521 -6.88338e-15 -7.97656e-05 -19.3494 
69 3.615 7.66857 5.1106 -3.26128e-15 7.04969e-05 -0.789759 
70 5.4225 8.94667 6.44521 7.6742e-15 -7.97656e-05 -19.3494 
71 7.23 7.66857 5.1106 -2.02697e-13 7.04969e-05 -0.789759 
72 9.0375 8.94667 6.44521 3.01981e-13 -7.97656e-05 -19.3494 
73 0 0 7.60878 -2.13163e-14 4.67587e-05 9.82812 
74 3.615 0 7.60878 -3.02536e-15 4.67587e-05 9.82812 
75 7.23 0 7.60878 -1.52692e-13 4.67587e-05 9.82812 
76 0 2.55619 7.60878 -3.90799e-14 4.67587e-05 9.82812 
77 3.615 2.55619 7.60878 2.22045e-16 4.67587e-05 9.82812 
78 7.23 2.55619 7.60878 -1.25159e-13 4.67587e-05 9.82812 
79 0 5.11238 7.60878 -3.55271e-15 4.67587e-05 9.82812 
80 3.615 5.11238 7.60878 -3.19189e-16 4.67587e-05 9.82812 
81 7.23 5.11238 7.60878 -1.69567e-13 4.67587e-05 9.82812 
82 0 7.66857 7.60878 -1.06581e-14 4.67587e-05 9.82812 
83 3.615 7.66857 7.60878 -3.30291e-15 4.67587e-05 9.82812 
84 7.23 7.66857 7.60878 -1.58909e-13 4.67587e-05 9.82812 
ITEM: TIMESTEP
1
ITEM: NUMBER OF ATOMS
84
ITEM: BOX BOUNDS xy xz yz pp pp pp
0.0000000000000000e+00 1.0845000000000001e+01 0.0000000000000000e+00
0.0000000000000000e+00 1.0224764000000000e+01 0.0000000000000000e+00
0.0000000000000000e+00 1.7893336999999999e+01 0.0000000000000000e+00
ITEM: ATOMS id x y z fx fy fz 
1 0 0 0.059272 -9.23706e-14 4.66933e-05 -9.71998 
2 1.8075 1.2781 1.2236 -6.66134e-15 -7.97144e-05 19.2889 
3 3.615 0 0.059272 2.6177e-15 4.66933e-05 -9.71998 
4 5.4225 1.2781 1.2236 2.06432e-15 -7.97144e-05 19.2889 
5 7.23 0 0.059272 -6.79456e-14 4.66933e-05 -9.71998 
6 9.0375 1.2781 1.2236 3.23297e-13 -7.97144e-05 19.2889 
7 0 2.55619 0.059272 -8.79297e-14 4.66933e-05 -9.71998 
8 1.8075 3.83429 1.2236 0 -7.97144e-05 19.2889 
9 3.615 2.55619 0.059272 -1.42594e-15 4.66933e-05 -9.71998 
10 5.4225 3.83429 1.2236 8.88748e-15 -7.97144e-05 19.2889 
11 7.23 2.55619 0.059272 -1.10583e-13 4.66933e-05 -9.71998 
12 9.0375 3.83429 1.2236 2.66454e-13 -7.97144e-05 19.2889 
13 0 5.11238 0.059272 -9.14824e-14 4.66933e-05 -9.71998 
14 1.8075 6.39048 1.2236 1.33227e-15 -7.97144e-05 19.2889 
15 3.615 5.11238 0.059272 -4.26742e-16 4.66933e-05 -9.71998 
16 5.4225 6.39048 1.2236 5.78292e-15 -7.97144e-05 19.2889 
17 7.23 5.11238 0.059272 -6.75747e-14 4.66933e-05 -9.71998 
18 9.0375 6.39048 1.2236 2.34479e-13 -7.97144e-05 19.2889 
19 0 7.66857 0.059272 -8.88178e-14 4.66933e-05 -9.71998 
20 1.8075 8.94667 1.2236 8.88178e-16 -7.97144e-05 19.2889 
21 3.615 7.66857 0.059272 -4.96825e-15 4.66933e-05 -9.71998 
22 5.4225 8.94667 1.2236 1.91748e-14 -7.97144e-05 19.2889 
23 7.23 7.66857 0.059272 -7.53673e-14 4.66933e-05 -9.71998 
24 9.0375 8.94667 1.2236 2.61124e-13 -7.97144e-05 19.2889 
25 0 0 2.55802 -1.78746e-13 7.04792e-05 0.783367 
26 1.8075 1.2781 3.83451 1.02141e-14 -7.4948e-05 -0.0412941 
27 3.615 0 2.55802 3.07393e-15 7.04792e-05 0.783367 
28 5.4225 1.2781 3.83451 1.47262e-14 -7.4948e-05 -0.0412941 
29 7.23 0 2.55802 -9.30384e-14 7.04792e-05 0.783367 
30 9.0375 1.2781 3.83451 2.11386e-13 -7.4948e-05 -0.0412941 
31 0 2.55619 2.55802 -1.98952e-13 7.04792e-05 0.783367 
32 1.8075 3.83429 3.83451 8.88178e-16 -7.4948e-05 -0.0412941 
33 3.615 2.55619 2.55802 8.39606e-15 7.04792e-05 0.783367 
34 5.4225 3.83429 3.83451 1.84802e-14 -7.4948e-05 -0.0412941 
35 7.23 2.55619 2.55802 -2.56652e-14 7.04792e-05 0.783367 
36 9.0375 3.83429 3.83451 1.9007e-13 -7.4948e-05 -0.0412941 
37 0 5.11238 2.55802 -2.06057e-13 7.04792e-05 0.783367 
38 1.8075 6.39048 3.83451 2.22045e-15 -7.4948e-05 -0.0412941 
39 3.615 5.11238 2.55802 5.89806e-15 7.04792e-05 0.783367 
40 5.4225 6.39048 3.83451 1.6961e-14 -7.4948e-05 -0.0412941 
41 7.23 5.11238 2.55802 -2.72621e-14 7.04792e-05 0.783367 
42 9.0375 6.39048 3.83451 1.93623e-13 -7.4948e-05 -0.0412941 
43 0 7.66857 2.55802 -2.06057e-13 7.04792e-05 0.783367 
44 1.8075 8.94667 3.83451 2.44249e-15 -7.4948e-05 -0.0412941 
45 3.615 7.66857 2.55802 4.27436e-15 7.04792e-05 0.783367 
46 5.4225 8.94667 3.83451 1.83356e-14 -7.4948e-05 -0.0412941 
47 7.23 7.66857 2.55802 -2.75666e-14 7.04792e-05 0.783367 
48 9.0375 8.94667 3.83451 2.16716e-13 -7.4948e-05 -0.0412941 
49 0 0 5.1106 -5.32907e-14 7.04969e-05 -0.789759 
50 1.8075 1.2781 6.44521 8.88178e-15 -7.97656e-05 -19.3494 
51 3.615 0 5.1106 4.4062e-15 7.04969e-05 -0.789759 
52 5.4225 1.2781 6.44521 1.46377e-14 -7.97656e-05 -19.3494 
53 7.23 0 5.1106 -2.03125e-13 7.04969e-05 -0.789759 
54 9.0375 1.2781 6.44521 3.03757e-13 -7.97656e-05 -19.3494 
55 0 2.55619 5.1106 -2.13163e-14 7.04969e-05 -0.789759 
56 1.8075 3.83429 6.44521 1.82077e-14 -7.97656e-05 -19.3494 
57 3.615 2.55619 5.1106 2.2482e-15 7.04969e-05 -0.789759 
58 5.4225 3.83429 6.44521 5.06897e-15 -7.97656e-05 -19.3494 
59 7.23 2.55619 5.1106 -2.07353e-13 7.04969e-05 -0.789759 
60 9.0375 3.83429 6.44521 2.6823e-13 -7.97656e-05 -19.3494 
61 0 5.11238 5.1106 -2.13163e-14 7.04969e-05 -0.789759 
62 1.8075 6.39048 6.44521 1.5099e-14 -7.97656e-05 -19.3494 
63 3.615 5.11238 5.1106 3.63598e-15 7.04969e-05 -0.789759 
64 5.4225 6.39048 6.44521 5.65227e-15 -7.97656e-05 -19.3494 
65 7.23 5.11238 5.1106 -1.90488e-13 7.04969e-05 -0.789759 
66 9.0375 6.39048 6.44521 2.54019e-13 -7.97656e-05 -19.3494 
67 0 7.66857 5.1106 -4.61853e-14 7.04969e-05 -0.789759 
68 1.8075 8.94667 6.44521 8.21565e-15 -7.97656e-05 -19.3494 
69 3.615 7.66857 5.1106 -3.747e-16 7.04969e-05 -0.789759 
70 5.4225 8.94667 6.44521 1.09801e-14 -7.97656e-05 -19.3494 
71 7.23 7.66857 5.1106 -1.91707e-13 7.04969e-05 -0.789759 
72 9.0375 8.94667 6.44521 2.71783e-13 -7.97656e-05 -19.3494 
73 0 0 7.60878 -1.95399e-14 4.67587e-05 9.82812 
74 3.615 0 7.60878 -1.80411e-15 4.67587e-05 9.82812 
75 7.23 0 7.60878 -1.58725e-13 4.67587e-05 9.82812 
76 0 2.55619 7.60878 -4.9738e-14 4.67587e-05 9.82812 
77 3.615 2.55619 7.60878 3.88578e-16 4.67587e-05 9.82812 
78 7.23 2.55619 7.60878 -1.21422e-13 4.67587e-05 9.82812 
79 0 5.11238 7.60878 -1.24345e-14 4.67587e-05 9.82812 
80 3.615 5.11238 7.60878 1.94289e-16 4.67587e-05 9.82812 
81 7.23 5.11238 7.60878 -1.64054e-13 4.67587e-05 9.82812 
82 0 7.66857 7.60878 -8.88178e-15 4.67587e-05 9.82812 
83 3.615 7.66857 7.60878 -3.13638e-15 4.67587e-05 9.82812 
84 7.23 7.66857 7.60878 -1.62278e-13 4.67587e-05 9.82812 
ITEM: TIMESTEP
2
ITEM: NUMBER OF ATOMS
84
ITEM: BOX BOUNDS xy xz yz pp pp pp
0.0000000000000000e+00 1.0845000000000001e+01 0.0000000000000000e+00
0.0000000000000000e+00 1.0224764000000000e+01 0.0000000000000000e+00
0.0000000000000000e+00 1.7893336999999999e+01 0.0000000000000000e+00
ITEM: ATOMS id x y z fx fy fz 
1 -6.08184e-19 3.07437e-10 0.059208 -7.10543e-15 4.65977e-05 -9.69924 
2 1.8075 1.2781 1.22373 5.19584e-14 -7.9564e-05 19.259 
3 3.615 3.07437e-10 0.059208 -3.16652e-15 4.65977e-05 -9.69924 
4 5.4225 1.2781 1.22373 4.93633e-14 -7.9564e-05 19.259 
5 7.23 3.07437e-10 0.059208 -1.3145e-13 4.65977e-05 -9.69924 
6 9.0375 1.2781 1.22373 1.84741e-13 -7.9564e-05 19.259 
7 -5.78944e-19 2.55619 0.059208 -4.44089e-15 4.65977e-05 -9.69924 
8 1.8075 3.83429 1.22373 5.9952e-14 -7.9564e-05 19.259 
9 3.615 2.55619 0.059208 -1.79752e-14 4.65977e-05 -9.69924 
10 5.4225 3.83429 1.22373 4.56294e-14 -7.9564e-05 19.259 
11 7.23 2.55619 0.059208 -1.38833e-13 4.65977e-05 -9.69924 
12 9.0375 3.83429 1.22373 2.0961e-13 -7.9564e-05 19.259 
13 -6.02336e-19 5.11238 0.059208 -6.4837e-14 4.65977e-05 -9.69924 
14 1.8075 6.39048 1.22373 4.13003e-14 -7.9564e-05 19.259 
15 3.615 5.11238 0.059208 -2.30579e-14 4.65977e-05 -9.69924 
16 5.4225 6.39048 1.22373 4.92349e-14 -7.9564e-05 19.259 
17 7.23 5.11238 0.059208 -1.45676e-13 4.65977e-05 -9.69924 
18 9.0375 6.39048 1.22373 1.81188e-13 -7.9564e-05 19.259 
19 -5.84792e-19 7.66857 0.059208 -1.24345e-14 4.65977e-05 -9.69924 
20 1.8075 8.94667 1.22373 4.61853e-14 -7.9564e-05 19.259 
21 3.615 7.66857 0.059208 -6.72379e-15 4.65977e-05 -9.69924 
22 5.4225 8.94667 1.22373 3.62858e-14 -7.9564e-05 19.259 
23 7.23 7.66857 0.059208 -1.46075e-13 4.65977e-05 -9.69924 
24 9.0375 8.94667 1.22373 1.9007e-13 -7.9564e-05 19.259 
25 -1.17689e-18 4.64047e-10 2.55803 -1.3145e-13 7.0353e-05 0.784925 
26 1.8075 1.2781 3.83451 -4.44089e-16 -7.48051e-05 -0.0412572 
27 3.615 4.64047e-10 2.55803 -4.32918e-14 7.0353e-05 0.784925 
28 5.4225 1.2781 3.83451 2.01573e-14 -7.48051e-05 -0.0412572 
29 7.23 4.64047e-10 2.55803 -9.87285e-14 7.0353e-05 0.784925 
30 9.0375 1.2781 3.83451 1.77636e-13 -7.48051e-05 -0.0412572 
31 -1.30993e-18 2.55619 2.55803 -1.10134e-13 7.0353e-05 0.784925 
32 1.8075 3.83429 3.83451 1.02141e-14 -7.48051e-05 -0.0412572 
33 3.615 2.55619 2.55803 -3.43614e-14 7.0353e-05 0.784925 
34 5.4225 3.83429 3.83451 3.34693e-16 -7.48051e-05 -0.0412572 
35 7.23 2.55619 2.55803 -5.873e-14 7.0353e-05 0.784925 
36 9.0375 3.83429 3.83451 2.0961e-13 -7.48051e-05 -0.0412572 
37 -1.35672e-18 5.11238 2.55803 -1.52767e-13 7.0353e-05 0.784925 
38 1.8075 6.39048 3.83451 1.55431e-14 -7.48051e-05 -0.0412572 
39 3.615 5.11238 2.55803 -3.407e-14 7.0353e-05 0.784925 
40 5.4225 6.39048 3.83451 1.22452e-14 -7.48051e-05 -0.0412572 
41 7.23 5.11238 2.55803 -4.21499e-14 7.0353e-05 0.784925 
42 9.0375 6.39048 3.83451 1.98952e-13 -7.48051e-05 -0.0412572 
43 -1.35672e-18 7.66857 2.55803 -1.66978e-13 7.0353e-05 0.784925 
44 1.8075 8.94667 3.83451 1.55431e-14 -7.48051e-05 -0.0412572 
45 3.615 7.66857 2.55803 -3.62627e-14 7.0353e-05 0.784925 
46 5.4225 8.94667 3.83451 1.55488e-14 -7.48051e-05 -0.0412572 
47 7.23 7.66857 2.55803 -8.73669e-14 7.0353e-05 0.784925 
48 9.0375 8.94667 3.83451 3.17968e-13 -7.48051e-05 -0.0412572 
49 -3.50875e-19 4.64164e-10 5.1106 -1.81188e-13 7.03706e-05 -0.791297 
50 1.8075 1.2781 6.44508 -1.9984e-14 -7.9615e-05 -19.3193 
51 3.615 4.64164e-10 5.1106 2.69229e-14 7.03706e-05 -0.791297 
52 5.4225 1.2781 6.44508 -7.91511e-15 -7.9615e-05 -19.3193 
53 7.23 4.64164e-10 5.1106 -1.51436e-13 7.03706e-05 -0.791297 
54 9.0375 1.2781 6.44508 3.9968e-13 -7.9615e-05 -19.3193 
55 -1.4035e-19 2.55619 5.1106 -1.91847e-13 7.03706e-05 -0.791297 
56 1.8075 3.83429 6.44508 -1.77636e-14 -7.9615e-05 -19.3193 
57 3.615 2.55619 5.1106 3.37785e-14 7.03706e-05 -0.791297 
58 5.4225 3.83429 6.44508 -7.57261e-15 -7.9615e-05 -19.3193 
59 7.23 2.55619 5.1106 -1.02852e-13 7.03706e-05 -0.791297 
60 9.0375 3.83429 6.44508 3.57048e-13 -7.9615e-05 -19.3193 
61 -1.4035e-19 5.11238 5.1106 -1.52767e-13 7.03706e-05 -0.791297 
62 1.8075 6.39048 6.44508 -1.28786e-14 -7.9615e-05 -19.3193 
63 3.615 5.11238 5.1106 4.41591e-14 7.03706e-05 -0.791297 
64 5.4225 6.39048 6.44508 -7.23488e-15 -7.9615e-05 -19.3193 
65 7.23 5.11238 5.1106 -7.78221e-14 7.03706e-05 -0.791297 
66 9.0375 6.39048 6.44508 3.64153e-13 -7.9615e-05 -19.3193 
67 -3.04092e-19 7.66857 5.1106 -1.24345e-13 7.03706e-05 -0.791297 
68 1.8075 8.94667 6.44508 -5.10703e-15 -7.9615e-05 -19.3193 
69 3.615 7.66857 5.1106 3.9288e-14 7.03706e-05 -0.791297 
70 5.4225 8.94667 6.44508 -1.35137e-14 -7.9615e-05 -19.3193 
71 7.23 7.66857 5.1106 -1.46387e-13 7.03706e-05 -0.791297 
72 9.0375 8.94667 6.44508 3.57048e-13 -7.9615e-05 -19.3193 
73 -1.28654e-19 3.07867e-10 7.60885 -7.99361e-14 4.66628e-05 9.80721 
74 3.615 3.07867e-10 7.60885 1.7375e-14 4.66628e-05 9.80721 
75 7.23 3.07867e-10 7.60885 -1.85097e-13 4.66628e-05 9.80721 
76 -3.27484e-19 2.55619 7.60885 -9.41469e-14 4.66628e-05 9.80721 
77 3.615 2.55619 7.60885 1.83881e-14 4.66628e-05 9.80721 
78 7.23 2.55619 7.60885 -1.56672e-13 4.66628e-05 9.80721 
79 -8.18709e-20 5.11238 7.60885 -7.10543e-14 4.66628e-05 9.80721 
80 3.615 5.11238 7.60885 1.65701e-14 4.66628e-05 9.80721 
81 7.23 5.11238 7.60885 -1.61113e-13 4.66628e-05 9.80721 
82 -5.84792e-20 7.66857 7.60885 -7.99361e-14 4.66628e-05 9.80721 
83 3.615 7.66857 7.60885 1.91236e-14 4.66628e-05 9.80721 
84 7.23 7.66857 7.60885 -1.86873e-13 4.66628e-05 9.80721 
ITEM: TIMESTEP
3
ITEM: NUMBER OF ATOMS
84
ITEM: BOX BOUNDS xy xz yz pp pp pp
0.0000000000000000e+00 1.0845000000000001e+01 0.0000000000000000e+00
0.0000000000000000e+00 1.0224764000000000e+01 0.0000000000000000e+00
0.0000000000000000e+00 1.7893336999999999e+01 0.0000000000000000e+00
ITEM: ATOMS id x y z fx fy fz 
1 -7.01907e-19 9.22075e-10 0.0590801 2.45137e-13 4.64067e-05 -9.65777 
2 1.8075 1.2781 1.22399 -1.247e-12 -7.92635e-05 19.1991 
3 3.615 9.22075e-10 0.0590801 1.21168e-13 4.64067e-05 -9.65777 
4 5.4225 1.2781 1.22399 9.53144e-13 -7.92635e-05 19.1991 
5 7.23 9.22075e-10 0.0590801 -5.01821e-13 4.64067e-05 -9.65777 
6 9.0375 1.2781 1.22399 5.11591e-13 -7.92635e-05 19.1991 
7 -6.37521e-19 2.55619 0.0590801 1.83853e-13 4.64067e-05 -9.65777 
8 1.8075 3.83429 1.22399 -1.24789e-12 -7.92635e-05 19.1991 
9 3.615 2.55619 0.0590801 1.10321e-13 4.64067e-05 -9.65777 
10 5.4225 3.83429 1.22399 9.64447e-13 -7.92635e-05 19.1991 
11 7.23 2.55619 0.0590801 -4.22386e-13 4.64067e-05 -9.65777 
12 9.0375 3.83429 1.22399 6.25278e-13 -7.92635e-05 19.1991 
13 -1.45756e-18 5.11238 0.0590801 1.76748e-13 4.64067e-05 -9.65777 
14 1.8075 6.39048 1.22399 -1.23102e-12 -7.92635e-05 19.1991 
15 3.615 5.11238 0.0590801 1.0807e-13 4.64067e-05 -9.65777 
16 5.4225 6.39048 1.22399 9.64997e-13 -7.92635e-05 19.1991 
17 7.23 5.11238 0.0590801 -4.85898e-13 4.64067e-05 -9.65777 
18 9.0375 6.39048 1.22399 4.76064e-13 -7.92635e-05 19.1991 
19 -7.48807e-19 7.66857 0.0590801 3.57048e-13 4.64067e-05 -9.65777 
20 1.8075 8.94667 1.22399 -1.2137e-12 -7.92635e-05 19.1991 
21 3.615 7.66857 0.0590801 1.12223e-13 4.64067e-05 -9.65777 
22 5.4225 8.94667 1.22399 9.57229e-13 -7.92635e-05 19.1991 
23 7.23 7.66857 0.0590801 -5.85114e-13 4.64067e-05 -9.65777 
24 9.0375 8.94667 1.22399 5.24025e-13 -7.92635e-05 19.1991 
25 -2.91077e-18 1.39203e-09 2.55804 7.09655e-13 7.01006e-05 0.788043 
26 1.8075 1.2781 3.83451 -9.32587e-15 -7.45192e-05 -0.0411831 
27 3.615 1.39203e-09 2.55804 2.98601e-13 7.01006e-05 0.788043 
28 5.4225 1.2781 3.83451 9.26017e-15 -7.45192e-05 -0.0411831 
29 7.23 1.39203e-09 2.55804 -1.24299e-12 7.01006e-05 0.788043 
30 9.0375 1.2781 3.83451 1.65201e-13 -7.45192e-05 -0.0411831 
31 -2.76264e-18 2.55619 2.55804 7.42517e-13 7.01006e-05 0.788043 
32 1.8075 3.83429 3.83451 -3.33067e-14 -7.45192e-05 -0.0411831 
33 3.615 2.55619 2.55804 2.89602e-13 7.01006e-05 0.788043 
34 5.4225 3.83429 3.83451 2.67669e-14 -7.45192e-05 -0.0411831 
35 7.23 2.55619 2.55804 -1.22538e-12 7.01006e-05 0.788043 
36 9.0375 3.83429 3.83451 2.71783e-13 -7.45192e-05 -0.0411831 
37 -3.37176e-18 5.11238 2.55804 7.4607e-13 7.01006e-05 0.788043 
38 1.8075 6.39048 3.83451 -1.37668e-14 -7.45192e-05 -0.0411831 
39 3.615 5.11238 2.55804 2.7281e-13 7.01006e-05 0.788043 
40 5.4225 6.39048 3.83451 2.39727e-14 -7.45192e-05 -0.0411831 
41 7.23 5.11238 2.55804 -1.29014e-12 7.01006e-05 0.788043 
42 9.0375 6.39048 3.83451 2.77112e-13 -7.45192e-05 -0.0411831 
43 -3.5592e-18 7.66857 2.55804 7.8515e-13 7.01006e-05 0.788043 
44 1.8075 8.94667 3.83451 7.99361e-15 -7.45192e-05 -0.0411831 
45 3.615 7.66857 2.55804 2.87478e-13 7.01006e-05 0.788043 
46 5.4225 8.94667 3.83451 1.98363e-14 -7.45192e-05 -0.0411831 
47 7.23 7.66857 2.55804 -1.35123e-12 7.01006e-05 0.788043 
48 9.0375 8.94667 3.83451 3.41061e-13 -7.45192e-05 -0.0411831 
49 -2.74081e-18 1.39237e-09 5.11059 -1.04983e-12 7.01181e-05 -0.794374 
50 1.8075 1.2781 6.44483 1.2621e-12 -7.9314e-05 -19.2592 
51 3.615 1.39237e-09 5.11059 -2.78499e-13 7.01181e-05 -0.794374 
52 5.4225 1.2781 6.44483 -9.3495e-13 -7.9314e-05 -19.2592 
53 7.23 1.39237e-09 5.11059 1.04609e-12 7.01181e-05 -0.794374 
54 9.0375 1.2781 6.44483 -3.90799e-14 -7.9314e-05 -19.2592 
55 -2.67087e-18 2.55619 5.11059 -1.03384e-12 7.01181e-05 -0.794374 
56 1.8075 3.83429 6.44483 1.25722e-12 -7.9314e-05 -19.2592 
57 3.615 2.55619 5.11059 -2.86549e-13 7.01181e-05 -0.794374 
58 5.4225 3.83429 6.44483 -9.38921e-13 -7.9314e-05 -19.2592 
59 7.23 2.55619 5.11059 1.06998e-12 7.01181e-05 -0.794374 
60 9.0375 3.83429 6.44483 -1.59872e-14 -7.9314e-05 -19.2592 
61 -2.15539e-18 5.11238 5.11059 -1.06226e-12 7.01181e-05 -0.794374 
62 1.8075 6.39048 6.44483 1.24967e-12 -7.9314e-05 -19.2592 
63 3.615 5.11238 5.11059 -2.74739e-13 7.01181e-05 -0.794374 
64 5.4225 6.39048 6.44483 -9.39555e-13 -7.9314e-05 -19.2592 
65 7.23 5.11238 5.11059 1.06605e-12 7.01181e-05 -0.794374 
66 9.0375 6.39048 6.44483 -5.32907e-15 -7.9314e-05 -19.2592 
67 -1.94424e-18 7.66857 5.11059 -1.04805e-12 7.01181e-05 -0.794374 
68 1.8075 8.94667 6.44483 1.2661e-12 -7.9314e-05 -19.2592 
69 3.615 7.66857 5.11059 -2.84162e-13 7.01181e-05 -0.794374 
70 5.4225 8.94667 6.44483 -9.37188e-13 -7.9314e-05 -19.2592 
71 7.23 7.66857 5.11059 1.07775e-12 7.01181e-05 -0.794374 
72 9.0375 8.94667 6.44483 -5.32907e-14 -7.9314e-05 -19.2592 
73 -1.18304e-18 9.23365e-10 7.60898 -4.03233e-13 4.64713e-05 9.76541 
74 3.615 9.23365e-10 7.60898 -1.0221e-13 4.64713e-05 9.76541 
75 7.23 9.23365e-10 7.60898 3.75126e-13 4.64713e-05 9.76541 
76 -1.56931e-18 2.55619 7.60898 -4.45866e-13 4.64713e-05 9.76541 
77 3.615 2.55619 7.60898 -1.03167e-13 4.64713e-05 9.76541 
78 7.23 2.55619 7.60898 3.87947e-13 4.64713e-05 9.76541 
79 -1.0191e-18 5.11238 7.60898 -4.44089e-13 4.64713e-05 9.76541 
80 3.615 5.11238 7.60898 -1.00836e-13 4.64713e-05 9.76541 
81 7.23 5.11238 7.60898 3.54792e-13 4.64713e-05 9.76541 
82 -1.11286e-18 7.66857 7.60898 -4.06786e-13 4.64713e-05 9.76541 
83 3.615 7.66857 7.60898 -1.06554e-13 4.64713e-05 9.76541 
84 7.23 7.66857 7.60898 3.07329e-13 4.64713e-05 9.76541 
ITEM: TIMESTEP
4
ITEM: NUMBER OF ATOMS
84
ITEM: BOX BOUNDS xy xz yz pp pp pp
0.0000000000000000e+00 1.0845000000000001e+01 0.0000000000000000e+00
0.0000000000000000e+00 1.0224764000000000e+01 0.0000000000000000e+00
0.0000000000000000e+00 1.7893336999999999e+01 0.0000000000000000e+00
ITEM: ATOMS id x y z fx fy fz 
1 4.16178e-18 1.84282e-09 0.0588884 8.69349e-12 4.6121e-05 -9.59562 
2 1.8075 1.2781 1.22437 -2.35665e-11 -7.88134e-05 19.1093 
3 3.615 1.84282e-09 0.0588884 -3.27351e-13 4.6121e-05 -9.59562 
4 5.4225 1.2781 1.22437 2.45188e-11 -7.88134e-05 19.1093 
5 7.23 1.84282e-09 0.0588884 -8.55715e-12 4.6121e-05 -9.59562 
6 9.0375 1.2781 1.22437 -6.25278e-13 -7.88134e-05 19.1093 
7 3.01025e-18 2.55619 0.0588884 8.61977e-12 4.6121e-05 -9.59562 
8 1.8075 3.83429 1.22437 -2.36979e-11 -7.88134e-05 19.1093 
9 3.615 2.55619 0.0588884 -3.13718e-13 4.6121e-05 -9.59562 
10 5.4225 3.83429 1.22437 2.46099e-11 -7.88134e-05 19.1093 
11 7.23 2.55619 0.0588884 -8.46933e-12 4.6121e-05 -9.59562 
12 9.0375 3.83429 1.22437 -6.75016e-13 -7.88134e-05 19.1093 
13 2.04923e-18 5.11238 0.0588884 8.5878e-12 4.6121e-05 -9.59562 
14 1.8075 6.39048 1.22437 -2.36571e-11 -7.88133e-05 19.1093 
15 3.615 5.11238 0.0588884 -3.21777e-13 4.6121e-05 -9.59562 
16 5.4225 6.39048 1.22437 2.46005e-11 -7.88133e-05 19.1093 
17 7.23 5.11238 0.0588884 -8.41436e-12 4.6121e-05 -9.59562 
18 9.0375 6.39048 1.22437 -6.14619e-13 -7.88133e-05 19.1093 
19 6.33526e-18 7.66857 0.0588884 8.61888e-12 4.6121e-05 -9.59562 
20 1.8075 8.94667 1.22437 -2.35909e-11 -7.88133e-05 19.1093 
21 3.615 7.66857 0.0588884 -3.39909e-13 4.6121e-05 -9.59562 
22 5.4225 8.94667 1.22437 2.4539e-11 -7.88133e-05 19.1093 
23 7.23 7.66857 0.0588884 -8.45892e-12 4.6121e-05 -9.59562 
24 9.0375 8.94667 1.22437 -5.77316e-13 -7.88133e-05 19.1093 
25 1.11693e-17 2.78287e-09 2.55805 2.37318e-11 6.97222e-05 0.792716 
26 1.8075 1.2781 3.83451 -2.88658e-14 -7.40908e-05 -0.0410716 
27 3.615 2.78287e-09 2.55805 -8.71241e-13 6.97222e-05 0.792716 
28 5.4225 1.2781 3.83451 6.11328e-14 -7.40908e-05 -0.0410716 
29 7.23 2.78287e-09 2.55805 -2.31691e-11 6.97222e-05 0.792716 
30 9.0375 1.2781 3.83451 2.78888e-13 -7.40908e-05 -0.0410716 
31 1.19694e-17 2.55619 2.55805 2.35687e-11 6.97222e-05 0.792716 
32 1.8075 3.83429 3.83451 -2.05613e-13 -7.40908e-05 -0.0410716 
33 3.615 2.55619 2.55805 -8.79463e-13 6.97222e-05 0.792716 
34 5.4225 3.83429 3.83451 2.51327e-13 -7.40908e-05 -0.0410716 
35 7.23 2.55619 2.55805 -2.30059e-11 6.97222e-05 0.792716 
36 9.0375 3.83429 3.83451 2.73559e-13 -7.40908e-05 -0.0410716 
37 1.14308e-17 5.11238 2.55805 2.35332e-11 6.97221e-05 0.792716 
38 1.8075 6.39048 3.83451 -1.57652e-13 -7.40908e-05 -0.0410716 
39 3.615 5.11238 2.55805 -8.82294e-13 6.97221e-05 0.792716 
40 5.4225 6.39048 3.83451 1.99858e-13 -7.40908e-05 -0.0410716 
41 7.23 5.11238 2.55805 -2.29278e-11 6.97221e-05 0.792716 
42 9.0375 6.39048 3.83451 2.36255e-13 -7.40908e-05 -0.0410716 
43 1.20187e-17 7.66857 2.55805 2.35048e-11 6.97221e-05 0.792716 
44 1.8075 8.94667 3.83451 2.44249e-15 -7.40908e-05 -0.0410716 
45 3.615 7.66857 2.55805 -8.80532e-13 6.97221e-05 0.792716 
46 5.4225 8.94667 3.83451 1.9013e-14 -7.40908e-05 -0.0410716 
47 7.23 7.66857 2.55805 -2.29552e-11 6.97221e-05 0.792716 
48 9.0375 8.94667 3.83451 2.0961e-13 -7.40908e-05 -0.0410716 
49 -2.35701e-17 2.78356e-09 5.11057 -2.35745e-11 6.97393e-05 -0.798988 
50 1.8075 1.2781 6.44444 2.37126e-11 -7.8863e-05 -19.1691 
51 3.615 2.78356e-09 5.11057 8.67709e-13 6.97393e-05 -0.798988 
52 5.4225 1.2781 6.44444 -2.45886e-11 -7.8863e-05 -19.1691 
53 7.23 2.78356e-09 5.11057 2.25143e-11 6.97393e-05 -0.798988 
54 9.0375 1.2781 6.44444 1.14042e-12 -7.8863e-05 -19.1691 
55 -2.3183e-17 2.55619 5.11057 -2.37073e-11 6.97393e-05 -0.798988 
56 1.8075 3.83429 6.44444 2.35834e-11 -7.8863e-05 -19.1691 
57 3.615 2.55619 5.11057 8.78908e-13 6.97393e-05 -0.798988 
58 5.4225 3.83429 6.44444 -2.44696e-11 -7.8863e-05 -19.1691 
59 7.23 2.55619 5.11057 2.25882e-11 6.97393e-05 -0.798988 
60 9.0375 3.83429 6.44444 1.12088e-12 -7.8863e-05 -19.1691 
61 -2.32314e-17 5.11238 5.11057 -2.38281e-11 6.97394e-05 -0.798988 
62 1.8075 6.39048 6.44444 2.36169e-11 -7.88631e-05 -19.1691 
63 3.615 5.11238 5.11057 8.90704e-13 6.97394e-05 -0.798988 
64 5.4225 6.39048 6.44444 -2.44974e-11 -7.88631e-05 -19.1691 
65 7.23 5.11238 5.11057 2.27152e-11 6.97394e-05 -0.798988 
66 9.0375 6.39048 6.44444 1.10667e-12 -7.88631e-05 -19.1691 
67 -2.27383e-17 7.66857 5.11057 -2.36504e-11 6.97394e-05 -0.798988 
68 1.8075 8.94667 6.44444 2.37212e-11 -7.88631e-05 -19.1691 
69 3.615 7.66857 5.11057 8.89261e-13 6.97394e-05 -0.798988 
70 5.4225 8.94667 6.44444 -2.46221e-11 -7.88631e-05 -19.1691 
71 7.23 7.66857 5.11057 2.25617e-11 6.97394e-05 -0.798988 
72 9.0375 8.94667 6.44444 1.1422e-12 -7.88631e-05 -19.1691 
73 -9.18345e-18 1.84539e-09 7.60917 -8.71481e-12 4.61847e-05 9.70277 
74 3.615 1.84539e-09 7.60917 3.16955e-13 4.61847e-05 9.70277 
75 7.23 1.84539e-09 7.60917 8.23191e-12 4.61847e-05 9.70277 
76 -1.04156e-17 2.55619 7.60917 -8.79652e-12 4.61847e-05 9.70277 
77 3.615 2.55619 7.60917 3.28113e-13 4.61847e-05 9.70277 
78 7.23 2.55619 7.60917 8.32273e-12 4.61847e-05 9.70277 
79 -9.83013e-18 5.11238 7.60917 -8.8054e-12 4.61847e-05 9.70277 
80 3.615 5.11238 7.60917 3.29028e-13 4.61847e-05 9.70277 
81 7.23 5.11238 7.60917 8.344e-12 4.61847e-05 9.70277 
82 -9.18377e-18 7.66857 7.60917 -8.75211e-12 4.61847e-05 9.70277 
83 3.615 7.66857 7.60917 3.17898e-13 4.61847e-05 9.70277 
84 7.23 7.66857 7.60917 8.31351e-12 4.61847e-05 9.70277 
ITEM: TIMESTEP
5
ITEM: NUMBER OF ATOMS
84
ITEM: BOX BOUNDS xy xz yz pp pp pp
0.0000000000000000e+00 1.0845000000000001e+01 0.0000000000000000e+00
0.0000000000000000e+00 1.0224764000000000e+01 0.0000000000000000e+00
0.0000000000000000e+00 1.7893336999999999e+01 0.0000000000000000e+00
ITEM: ATOMS id x y z fx fy fz 
1 2.35045e-16 3.06771e-09 0.0586336 1.62608e-11 4.57416e-05 -9.51289 
2 1.8075 1.2781 1.22487 -3.98104e-11 -7.82145e-05 18.9896 
3 3.615 3.06771e-09 0.0586336 -1.85129e-12 4.57416e-05 -9.51289 
4 5.4225 1.2781 1.22487 4.50815e-11 -7.82145e-05 18.9896 
5 7.23 3.06771e-09 0.0586336 -1.44977e-11 4.57416e-05 -9.51289 
6 9.0375 1.2781 1.22487 -5.06972e-12 -7.82145e-05 18.9896 
7 2.31935e-16 2.55619 0.0586336 1.64047e-11 4.57416e-05 -9.51289 
8 1.8075 3.83429 1.22487 -3.95404e-11 -7.82145e-05 18.9896 
9 3.615 2.55619 0.0586336 -1.93043e-12 4.57416e-05 -9.51289 
10 5.4225 3.83429 1.22487 4.4831e-11 -7.82145e-05 18.9896 
11 7.23 2.55619 0.0586336 -1.46949e-11 4.57416e-05 -9.51289 
12 9.0375 3.83429 1.22487 -5.09814e-12 -7.82145e-05 18.9896 
13 2.30125e-16 5.11238 0.0586336 1.65414e-11 4.57416e-05 -9.51289 
14 1.8075 6.39048 1.22487 -3.95115e-11 -7.82145e-05 18.9896 
15 3.615 5.11238 0.0586336 -1.92302e-12 4.57416e-05 -9.51289 
16 5.4225 6.39048 1.22487 4.47577e-11 -7.82145e-05 18.9896 
17 7.23 5.11238 0.0586336 -1.47758e-11 4.57416e-05 -9.51289 
18 9.0375 6.39048 1.22487 -5.0413e-12 -7.82145e-05 18.9896 
19 2.35237e-16 7.66857 0.0586336 1.64029e-11 4.57416e-05 -9.51289 
20 1.8075 8.94667 1.22487 -3.98468e-11 -7.82145e-05 18.9896 
21 3.615 7.66857 0.0586336 -1.92788e-12 4.57416e-05 -9.51289 
22 5.4225 8.94667 1.22487 4.51356e-11 -7.82145e-05 18.9896 
23 7.23 7.66857 0.0586336 -1.46346e-11 4.57416e-05 -9.51289 
24 9.0375 8.94667 1.22487 -5.19229e-12 -7.82145e-05 18.9896 
25 6.41442e-16 4.63456e-09 2.55807 4.28572e-11 6.92179e-05 0.798936 
26 1.8075 1.2781 3.83451 -8.57536e-13 -7.35206e-05 -0.0409223 
27 3.615 4.63456e-09 2.55807 -5.00663e-12 6.92179e-05 0.798936 
28 5.4225 1.2781 3.83451 1.01219e-12 -7.35206e-05 -0.0409223 
29 7.23 4.63456e-09 2.55807 -3.79662e-11 6.92179e-05 0.798936 
30 9.0375 1.2781 3.83451 2.77112e-13 -7.35206e-05 -0.0409223 
31 6.3791e-16 2.55619 2.55807 4.32294e-11 6.92178e-05 0.798936 
32 1.8075 3.83429 3.83451 -4.996e-13 -7.35206e-05 -0.0409223 
33 3.615 2.55619 2.55807 -5.07093e-12 6.92178e-05 0.798936 
34 5.4225 3.83429 3.83451 4.70634e-13 -7.35206e-05 -0.0409223 
35 7.23 2.55619 2.55807 -3.83037e-11 6.92178e-05 0.798936 
36 9.0375 3.83429 3.83451 3.28626e-13 -7.35206e-05 -0.0409223 
37 6.36428e-16 5.11238 2.55807 4.34248e-11 6.92179e-05 0.798936 
38 1.8075 6.39048 3.83451 -4.78728e-13 -7.35206e-05 -0.0409223 
39 3.615 5.11238 2.55807 -5.06589e-12 6.92179e-05 0.798936 
40 5.4225 6.39048 3.83451 4.71491e-13 -7.35206e-05 -0.0409223 
41 7.23 5.11238 2.55807 -3.84065e-11 6.92179e-05 0.798936 
42 9.0375 6.39048 3.83451 2.73559e-13 -7.35206e-05 -0.0409223 
43 6.36261e-16 7.66857 2.55807 4.31726e-11 6.92179e-05 0.798936 
44 1.8075 8.94667 3.83451 -1.07714e-12 -7.35206e-05 -0.0409223 
45 3.615 7.66857 2.55807 -5.03934e-12 6.92179e-05 0.798936 