 # converted from raw with ene = -25.905879
 
           5  atoms
           2  atom types
 
      0.000000000000       3.682199000000  xlo xhi
      0.000000000000       3.682200000000  ylo yhi
      0.000000000000       3.682200000000  zlo zhi
 
Masses
 
            1   58.69340000             # Ni
            2   15.99900000             # O
 
Atoms # charge
 
         1    1   0.000000       -0.000002000000      -0.000002000000      -0.000002000000
         2    1   0.000000        1.841101000000       1.841101000000       1.841102000000
         3    2   0.000000        1.841103000000       1.841103000000       0.000002000000
         4    2   0.000000        1.841103000000       0.000002000000       1.841103000000
         5    2   0.000000        0.000002000000       1.841103000000       1.841103000000
