ITEM: TIMESTEP
0
ITEM: NUMBER OF ATOMS
5
ITEM: BOX BOUNDS pp pp pp
0.0000000000000000e+00 3.6821990000000002e+00
0.0000000000000000e+00 3.6821999999999999e+00
0.0000000000000000e+00 3.6821999999999999e+00
ITEM: ATOMS id x y z fx fy fz 
1 3.6822 3.6822 3.6822 -0.00362605 -0.00328047 -0.00325996 
2 1.8411 1.8411 1.8411 0.000293496 0.000351333 7.67999e-05 
3 1.8411 1.8411 2e-06 0.00166281 0.00153004 -3.57787e-05 
4 1.8411 2e-06 1.8411 0.00166281 -0.000130939 0.00160947 
5 2e-06 1.8411 1.8411 6.93356e-06 0.00153004 0.00160947 
ITEM: TIMESTEP
1
ITEM: NUMBER OF ATOMS
5
ITEM: BOX BOUNDS pp pp pp
0.0000000000000000e+00 3.6821990000000002e+00
0.0000000000000000e+00 3.6821999999999999e+00
0.0000000000000000e+00 3.6821999999999999e+00
ITEM: ATOMS id x y z fx fy fz 
1 3.6822 3.6822 3.6822 -0.00362605 -0.00328047 -0.00325996 
2 1.8411 1.8411 1.8411 0.000293496 0.000351333 7.67999e-05 
3 1.8411 1.8411 2e-06 0.00166281 0.00153004 -3.57787e-05 
4 1.8411 2e-06 1.8411 0.00166281 -0.000130939 0.00160947 
5 2e-06 1.8411 1.8411 6.9336e-06 0.00153004 0.00160947 
ITEM: TIMESTEP
2
ITEM: NUMBER OF ATOMS
5
ITEM: BOX BOUNDS pp pp pp
0.0000000000000000e+00 3.6821990000000002e+00
0.0000000000000000e+00 3.6821999999999999e+00
0.0000000000000000e+00 3.6821999999999999e+00
ITEM: ATOMS id x y z fx fy fz 
1 3.6822 3.6822 3.6822 -0.00366998 -0.00332051 -0.00330055 
2 1.8411 1.8411 1.8411 0.000294879 0.000352175 7.88696e-05 
3 1.8411 1.8411 1.99955e-06 0.00168326 0.00154853 -3.40982e-05 
4 1.8411 1.99835e-06 1.8411 0.00168326 -0.000128729 0.00162789 
5 2.00009e-06 1.8411 1.8411 8.56832e-06 0.00154853 0.00162789 
ITEM: TIMESTEP
3
ITEM: NUMBER OF ATOMS
5
ITEM: BOX BOUNDS pp pp pp
0.0000000000000000e+00 3.6821990000000002e+00
0.0000000000000000e+00 3.6821999999999999e+00
0.0000000000000000e+00 3.6821999999999999e+00
ITEM: ATOMS id x y z fx fy fz 
1 3.6822 3.6822 3.6822 -0.00375782 -0.00340058 -0.00338172 
2 1.8411 1.8411 1.8411 0.000297666 0.000353891 8.3001e-05 
3 1.8411 1.8411 1.9987e-06 0.00172417 0.00158552 -3.07583e-05 
4 1.8411 1.99515e-06 1.8411 0.00172417 -0.000124348 0.00166474 
5 2.0003e-06 1.8411 1.8411 1.18211e-05 0.00158552 0.00166474 
ITEM: TIMESTEP
4
ITEM: NUMBER OF ATOMS
5
ITEM: BOX BOUNDS pp pp pp
0.0000000000000000e+00 3.6821990000000002e+00
0.0000000000000000e+00 3.6821999999999999e+00
0.0000000000000000e+00 3.6821999999999999e+00
ITEM: ATOMS id x y z fx fy fz 
1 3.6822 3.6822 3.6822 -0.00389012 -0.00352116 -0.00350395 
2 1.8411 1.8411 1.8411 0.00030192 0.000356568 8.92005e-05 
3 1.8411 1.8411 1.99757e-06 0.00178576 0.00164123 -2.57894e-05 
4 1.8411 1.9906e-06 1.8411 0.00178576 -0.000117867 0.00172027 
5 2.00073e-06 1.8411 1.8411 1.66718e-05 0.00164123 0.00172027 
ITEM: TIMESTEP
5
ITEM: NUMBER OF ATOMS
5
ITEM: BOX BOUNDS pp pp pp
0.0000000000000000e+00 3.6821990000000002e+00
0.0000000000000000e+00 3.6821999999999999e+00
0.0000000000000000e+00 3.6821999999999999e+00
ITEM: ATOMS id x y z fx fy fz 
1 3.6822 3.6822 3.6822 -0.00406793 -0.00368321 -0.00366817 
2 1.8411 1.8411 1.8411 0.000307746 0.000360339 9.74899e-05 
3 1.8411 1.8411 1.99635e-06 0.00186854 0.00171612 -1.92265e-05 
4 1.8411 1.98499e-06 1.8411 0.00186854 -0.000109374 0.00179495 
5 2.00153e-06 1.8411 1.8411 2.31003e-05 0.00171612 0.00179495 
ITEM: TIMESTEP
6
ITEM: NUMBER OF ATOMS
5
ITEM: BOX BOUNDS pp pp pp
0.0000000000000000e+00 3.6821990000000002e+00
0.0000000000000000e+00 3.6821999999999999e+00
0.0000000000000000e+00 3.6821999999999999e+00
ITEM: ATOMS id x y z fx fy fz 
1 3.6822 3.6822 3.6822 -0.00429285 -0.00388816 -0.00387582 
2 1.8411 1.8411 1.8411 0.000315278 0.000365381 0.000107909 
3 1.8411 1.8411 1.99524e-06 0.00197324 0.00181088 -1.11036e-05 
4 1.8411 1.97871e-06 1.8411 0.00197324 -9.897e-05 0.00188951 
5 2.00285e-06 1.8411 1.8411 3.1092e-05 0.00181087 0.00188951 
