 # LAMMPS data file written by Ovito Pyth
 
          41  atoms
           3  atom types
 
      0.000000000000       7.495103000000  xlo xhi
      0.000000000000       7.495178000000  ylo yhi
      0.000000000000      20.111915000000  zlo zhi
 
Masses
 
            1   63.54600000             # Cu
            2   58.69340000             # Ni
            3   15.99900000             # O
 
Atoms # charge
 
         1    1   0.000000        0.773570898512       2.661542614973       1.051307360251
         2    1   0.000000        4.510129772456       2.661572988642       1.037562267208
         3    1   0.000000        6.384628978566       0.790599489319       1.044524472438
         4    1   0.000000        0.770338535267       6.409381011394       1.043169210424
         5    1   0.000000        2.644151764862       4.531798605445       1.048240801408
         6    1   0.000000        4.509458645922       6.409377706074       1.051088383238
         7    1   0.000000        6.384534599311       4.532695954925       1.044197956688
         8    1   0.000000        0.765027188801       0.788000100869       2.721650044698
         9    1   0.000000        2.648955753139       2.661487110225       2.735236034760
        10    1   0.000000        4.516408769150       0.794887563395       2.729834689524
        11    1   0.000000        6.381709906240       2.661514790066       2.723761825213
        12    1   0.000000        2.640174950367       6.409012391091       2.726841802857
        13    1   0.000000        4.516354095242       4.528153794498       2.729614781567
        14    1   0.000000        6.386766911728       6.408953448010       2.716541888173
        15    1   0.000000        0.756600423696       2.661068280807       4.476966728380
        16    1   0.000000        2.632578231496       0.779160460222       4.473042852258
        17    1   0.000000        4.526615437260       2.661147443216       4.492243030846
        18    1   0.000000        6.397081235482       0.778953869953       4.480464658758
        19    1   0.000000        0.754985726559       6.408549410410       4.468432450033
        20    1   0.000000        2.632498212158       4.542901125295       4.473041094829
        21    1   0.000000        4.526444347110       6.408656789714       4.477791161954
        22    1   0.000000        6.396993892790       4.543088704249       4.480523475628
        23    1   0.000000        0.763750586888       0.780515469156       6.237571052304
        24    1   0.000000        4.519723284390       0.786598477332       6.205927839254
        25    1   0.000000        6.389297301974       2.660623493549       6.232448236337
        26    1   0.000000        0.763613583432       4.540689532431       6.237520851259
        27    1   0.000000        2.629849466022       6.408410547437       6.206031665227
        28    1   0.000000        4.519619749161       4.534923755439       6.205871057594
        29    1   0.000000        0.821386767512       2.660301431345       7.886869431330
        30    1   0.000000        0.818326418486       6.408212437853       7.917469661747
        31    1   0.000000        4.460141279023       6.407922540018       7.886460978488
        32    1   0.000000        6.372854797892       4.519230255655       7.927735703776
        33    1   0.000000        2.644243217239       0.791588551865       1.048402956366
        34    1   0.000000        0.764906742285       4.534897021623       2.721407205679
        35    1   0.000000        2.640600086251       2.660646330544       6.179503502367
        36    1   0.000000        6.391539310419       6.408299306742       6.267560150726
        37    1   0.000000        6.372757611706       0.801733113019       7.928288975736
        38    2   0.000000        2.656004414056       0.798388491762       7.817333165491
        39    2   0.000000        2.655579745967       4.522919611076       7.816489823667
        40    2   0.000000        4.470350292566       2.661133427183       7.861563603459
        41    3   0.000000        4.444329068615       2.653537553179       9.513411168061
