LAMMPS (3 Mar 2020)
# minimizing input file for REAX optimization
variable        dt equal 1.0

units           real
boundary        p p p
# needed for triclinic systems w large skew
box		tilt large

atom_style      charge
read_data       data.cu
  orthogonal box = (0 0 0) to (7.4951 7.49518 20.1119)
  1 by 1 by 1 MPI processor grid
  reading atoms ...
  41 atoms
  read_data CPU = 0.0007845 secs

mass		1 63.5463
mass		2 58.6934
mass		3 15.9999

pair_style	reax/c NULL safezone 2.4 mincap 200
pair_coeff	* * ffield.reax.temp Cu Ni O

neighbor	2 bin
neigh_modify	every 10 delay 0 check no

fix             reax all qeq/reax 1 0.0 10.0 1e-6 reax/c

timestep        ${dt}
timestep        1

thermo          1
thermo_style    custom step etotal pe atoms
thermo_modify   lost ignore

dump            3 all custom 1 forces.dat id x y z fx fy fz
dump_modify	3 sort id

# configuration output section
min_style       quickmin
minimize        1.0e-8 1.0e-6 1000 1000
WARNING: Using 'neigh_modify every 1 delay 0 check yes' setting during minimization (src/min.cpp:190)
Neighbor list info ...
  update every 1 steps, delay 0 steps, check yes
  max neighbors/atom: 2000, page size: 100000
  master list distance cutoff = 12
  ghost atom cutoff = 12
  binsize = 6, bins = 2 2 4
  2 neighbor lists, perpetual/occasional/extra = 2 0 0
  (1) pair reax/c, perpetual
      attributes: half, newton off, ghost
      pair build: half/bin/newtoff/ghost
      stencil: half/ghost/bin/3d/newtoff
      bin: standard
  (2) fix qeq/reax, perpetual, copy from (1)
      attributes: half, newton off, ghost
      pair build: copy
      stencil: none
      bin: none
Per MPI rank memory allocation (min/avg/max) = 62.58 | 62.58 | 62.58 Mbytes
Step TotEng PotEng Atoms 
       0   -3435.3036   -3435.3036       41 
       1    -3434.592   -3435.3036       41 
       2   -3433.5544   -3436.7137       41 
       3   -3431.8779   -3439.4554       41 
       4   -3429.5899   -3443.3529       41 
       5   -3426.7564   -3448.1558       41 
       6   -3423.4861   -3453.5691       41 
       7   -3419.8305   -3459.2877       41 
       8   -3415.9695   -3465.0268       41 
       9   -3411.8763   -3470.5464       41 
      10   -3407.7021   -3475.6718       41 
      11   -3403.5596      -3480.3       41 
      12   -3399.6488   -3484.3991       41 
      13   -3396.3166   -3487.9982       41 
      14    -3394.006   -3491.1689       41 
      15   -3393.0034   -3493.9999       41 
      16   -3393.1792    -3496.573       41 
      17   -3394.0745   -3498.9502       41 
      18   -3395.2443    -3501.192       41 
      19    -3396.605   -3503.3555       41 
      20   -3398.0485   -3505.4083       41 
      21   -3399.3929   -3507.3576       41 
      22   -3400.2828   -3509.2054       41 
      23   -3401.1858   -3510.9583       41 
      24   -3402.1592   -3512.6225       41 
      25   -3403.2957   -3514.2043       41 
      26   -3404.6783   -3515.7116       41 
      27   -3406.4136   -3517.1543       41 
      28   -3408.6262   -3518.5449       41 
      29   -3411.4587   -3519.8993       41 
      30   -3415.0513   -3521.2387       41 
      31    -3419.482   -3522.5908       41 
      32   -3424.6399    -3523.993       41 
      33    -3430.096   -3525.4925       41 
      34    -3435.133   -3527.1465       41 
      35   -3439.0594   -3529.0189       41 
      36   -3441.5082   -3531.1777       41 
      37   -3442.6678   -3533.6977       41 
      38   -3442.7559   -3536.6716       41 
      39    -3442.044   -3540.2239       41 
      40   -3440.6971   -3544.5156       41 
      41   -3438.7404   -3549.7164       41 
      42   -3436.0587   -3555.9187       41 
      43   -3432.5563   -3563.0299       41 
      44   -3428.4479   -3570.7594       41 
      45   -3424.1498   -3578.7325       41 
      46    -3419.524   -3586.5243       41 
      47   -3414.2049   -3593.6256       41 
      48   -3409.3033   -3599.6529       41 
      49   -3406.5539   -3604.4214       41 
      50   -3411.5952   -3607.1962       41 
      51   -3511.8867   -3608.1377       41 
      52   -3608.1082   -3608.1377       41 
      53   -3608.0636   -3608.1958       41 
      54   -3607.9888    -3608.307       41 
      55   -3607.8844   -3608.4587       41 
      56   -3607.7526   -3608.6318       41 
      57   -3607.5968   -3608.8067       41 
      58   -3607.4271   -3608.9763       41 
      59   -3607.2563   -3609.1463       41 
      60   -3607.0965   -3609.3213       41 
      61   -3606.9602    -3609.502       41 
      62    -3606.839   -3609.6877       41 
      63    -3606.723   -3609.8774       41 
      64   -3606.6072   -3610.0706       41 
      65   -3606.4896   -3610.2667       41 
      66     -3606.37   -3610.4652       41 
      67   -3606.2489   -3610.6658       41 
      68   -3606.1269   -3610.8681       41 
      69   -3606.0047   -3611.0718       41 
      70    -3605.883   -3611.2768       41 
      71   -3605.7626   -3611.4829       41 
      72   -3605.6442   -3611.6898       41 
      73   -3605.5286   -3611.8975       41 
      74   -3605.4164   -3612.1057       41 
      75   -3605.3081   -3612.3144       41 
      76   -3605.2044   -3612.5234       41 
      77   -3605.1059   -3612.7325       41 
      78   -3605.0129   -3612.9416       41 
      79    -3604.926   -3613.1506       41 
      80   -3604.8456   -3613.3592       41 
      81   -3604.7726   -3613.5674       41 
      82    -3604.707    -3613.775       41 
      83   -3604.6497   -3613.9818       41 
      84   -3604.6017   -3614.1877       41 
      85   -3604.5637   -3614.3924       41 
      86    -3604.537    -3614.596       41 
      87   -3604.5229   -3614.7982       41 
      88   -3604.5237   -3614.9989       41 
      89   -3604.5423   -3615.1979       41 
      90   -3604.5828   -3615.3953       41 
      91   -3604.6521    -3615.591       41 
      92   -3604.7604   -3615.7851       41 
      93   -3604.9252   -3615.9776       41 
      94   -3605.1753    -3616.169       41 
      95   -3605.5573   -3616.3603       41 
      96    -3606.131   -3616.5531       41 
      97   -3606.9178   -3616.7503       41 
      98   -3607.7677   -3616.9541       41 
      99   -3608.3751   -3617.1629       41 
     100   -3608.6122   -3617.3718       41 
     101   -3608.5646   -3617.5767       41 
     102   -3608.3405   -3617.7764       41 
     103   -3608.0272   -3617.9709       41 
     104   -3607.6879   -3618.1607       41 
     105   -3607.3516   -3618.3464       41 
     106   -3607.0405   -3618.5283       41 
     107   -3606.7711   -3618.7069       41 
     108   -3606.5523    -3618.883       41 
     109   -3606.8345    -3619.063       41 
     110   -3606.7627   -3619.2423       41 
     111   -3606.7419   -3619.4217       41 
     112   -3606.7655    -3619.602       41 
     113   -3606.8248   -3619.7838       41 
     114   -3606.9111   -3619.9678       41 
     115    -3606.956    -3620.155       41 
     116   -3607.0863    -3620.347       41 
     117   -3607.2215   -3620.5451       41 
     118   -3607.3461   -3620.7508       41 
     119   -3607.4621   -3620.9658       41 
     120   -3607.5624   -3621.1919       41 
     121   -3607.6452   -3621.4309       41 
     122   -3607.7071   -3621.6849       41 
     123   -3607.7475   -3621.9563       41 
     124   -3607.7659   -3622.2475       41 
     125   -3607.7625   -3622.5618       41 
     126   -3607.7349   -3622.9034       41 
     127   -3607.6786    -3623.278       41 
     128   -3607.5818   -3623.6941       41 
     129   -3607.4231   -3624.1641       41 
     130   -3607.1701   -3624.7063       41 
     131   -3606.7826    -3625.347       41 
     132    -3606.225   -3626.1223       41 
     133   -3605.4832   -3627.0793       41 
     134   -3604.5738   -3628.2743       41 
     135   -3603.5371   -3629.7644       41 
     136   -3602.4244    -3631.593       41 
     137   -3601.2964   -3633.7651       41 
     138   -3600.2532   -3636.2225       41 
     139   -3599.4931   -3638.8325       41 
     140    -3599.364   -3641.4123       41 
     141   -3600.2999   -3643.7905       41 
     142   -3602.0936   -3645.8714       41 
     143   -3604.3702    -3647.647       41 
     144   -3604.9856   -3649.1762       41 
     145   -3603.2841   -3650.5248       41 
     146   -3600.7154   -3651.7369       41 
     147   -3598.6949   -3652.8378       41 
     148   -3597.5372    -3653.845       41 
     149   -3596.9423   -3654.7756       41 
     150   -3596.5996   -3655.6516       41 
     151   -3596.4756   -3656.5059       41 
     152   -3596.7959   -3657.3968       41 
     153   -3597.5837    -3658.438       41 
     154   -3597.9493   -3659.8417       41 
     155   -3596.8437   -3661.9382       41 
     156   -3594.5332   -3665.0859       41 
     157   -3592.2262   -3669.4483       41 
     158   -3589.9415   -3674.6892       41 
     159   -3588.5089   -3679.9297       41 
     160   -3590.2082    -3684.277       41 
     161   -3596.4982   -3687.4895       41 
     162   -3599.5823   -3689.9057       41 
     163   -3596.4483   -3691.8403       41 
     164    -3598.686   -3693.4028       41 
     165   -3604.7853   -3694.6547       41 
     166   -3609.9402    -3695.656       41 
     167   -3611.7601   -3696.4631       41 
     168   -3609.9201   -3697.1194       41 
     169   -3605.2608   -3697.6557       41 
     170    -3600.542   -3698.0909       41 
     171   -3596.6889   -3698.4367       41 
     172   -3594.4375   -3698.7027       41 
     173   -3591.0336   -3698.8958       41 
     174   -3603.2492    -3698.973       41 
     175   -3698.9728    -3698.973       41 
     176   -3698.9726   -3698.9735       41 
     177   -3698.9723   -3698.9744       41 
     178   -3698.9719   -3698.9757       41 
     179   -3698.9715   -3698.9774       41 
     180    -3698.971   -3698.9795       41 
     181   -3698.9705   -3698.9819       41 
     182     -3698.97   -3698.9846       41 
     183   -3698.9694   -3698.9876       41 
     184   -3698.9687   -3698.9909       41 
     185   -3698.9681   -3698.9942       41 
     186   -3698.9674   -3698.9977       41 
     187   -3698.9668   -3699.0013       41 
     188   -3698.9661   -3699.0048       41 
     189   -3698.9655   -3699.0084       41 
     190   -3698.9649   -3699.0118       41 
     191   -3698.9645   -3699.0151       41 
     192   -3698.9643   -3699.0182       41 
     193   -3698.9645   -3699.0212       41 
     194   -3698.9651   -3699.0239       41 
     195   -3698.9663   -3699.0266       41 
     196   -3698.9681    -3699.029       41 
     197   -3698.9704   -3699.0314       41 
     198   -3698.9727   -3699.0336       41 
     199   -3698.9746   -3699.0359       41 
     200   -3698.9758   -3699.0381       41 
     201   -3698.9763   -3699.0404       41 
     202   -3698.9763   -3699.0427       41 
     203   -3698.9759    -3699.045       41 
     204   -3698.9753   -3699.0473       41 
     205   -3698.9744   -3699.0497       41 
     206   -3698.9735   -3699.0521       41 
     207   -3698.9725   -3699.0545       41 
     208   -3698.9714   -3699.0569       41 
     209   -3698.9703   -3699.0593       41 
     210   -3698.9691   -3699.0618       41 
     211   -3698.9679   -3699.0642       41 
     212   -3698.9667   -3699.0667       41 
     213   -3698.9655   -3699.0691       41 
     214   -3698.9643   -3699.0715       41 
     215   -3698.9631    -3699.074       41 
     216   -3698.9618   -3699.0764       41 
     217   -3698.9606   -3699.0788       41 
     218   -3698.9594   -3699.0812       41 
     219   -3698.9581   -3699.0836       41 
     220   -3698.9569    -3699.086       41 
     221   -3698.9556   -3699.0883       41 
     222   -3698.9544   -3699.0906       41 
     223   -3698.9531   -3699.0929       41 
     224   -3698.9519   -3699.0951       41 
     225   -3698.9507   -3699.0973       41 
     226   -3698.9495   -3699.0995       41 
     227   -3698.9482   -3699.1016       41 
     228    -3698.947   -3699.1037       41 
     229   -3698.9459   -3699.1058       41 
     230   -3698.9447   -3699.1078       41 
     231   -3698.9435   -3699.1098       41 
     232   -3698.9423   -3699.1117       41 
     233    -3698.941   -3699.1135       41 
     234   -3698.9399   -3699.1153       41 
     235   -3698.9387   -3699.1171       41 
     236   -3698.9376   -3699.1188       41 
     237   -3698.9363   -3699.1204       41 
     238   -3698.9352    -3699.122       41 
     239    -3698.934   -3699.1235       41 
     240   -3698.9329    -3699.125       41 
     241   -3698.9317   -3699.1264       41 
     242   -3698.9308   -3699.1277       41 
     243   -3698.9293    -3699.129       41 
     244   -3698.9283   -3699.1302       41 
     245    -3698.927   -3699.1314       41 
     246   -3698.9261   -3699.1325       41 
     247   -3698.9244   -3699.1335       41 
     248   -3698.9241   -3699.1344       41 
     249   -3698.9225   -3699.1353       41 
     250   -3698.9297   -3699.1361       41 
     251   -3698.9624   -3699.1367       41 
     252   -3699.1025    -3699.137       41 
     253   -3699.1272   -3699.1371       41 
     254   -3699.1278   -3699.1373       41 
     255   -3699.1278   -3699.1374       41 
     256   -3699.1278   -3699.1376       41 
     257   -3699.1278   -3699.1377       41 
     258   -3699.1277   -3699.1378       41 
     259   -3699.1277    -3699.138       41 
     260   -3699.1277   -3699.1381       41 
     261   -3699.1276   -3699.1382       41 
     262   -3699.1276   -3699.1384       41 
     263   -3699.1276   -3699.1385       41 
     264   -3699.1275   -3699.1386       41 
     265   -3699.1275   -3699.1387       41 
     266   -3699.1275   -3699.1389       41 
     267   -3699.1275    -3699.139       41 
     268   -3699.1275   -3699.1391       41 
     269   -3699.1275   -3699.1392       41 
     270   -3699.1274   -3699.1393       41 
     271   -3699.1274   -3699.1394       41 
     272   -3699.1274   -3699.1395       41 
     273   -3699.1274   -3699.1396       41 
     274   -3699.1274   -3699.1397       41 
     275   -3699.1274   -3699.1398       41 
     276   -3699.1274   -3699.1399       41 
     277   -3699.1274     -3699.14       41 
     278   -3699.1275   -3699.1401       41 
     279   -3699.1278   -3699.1402       41 
     280   -3699.1304   -3699.1402       41 
     281   -3699.1368   -3699.1403       41 
Loop time of 2.96094 on 1 procs for 281 steps with 41 atoms

99.0% CPU use with 1 MPI tasks x no OpenMP threads

Minimization stats:
  Stopping criterion = energy tolerance
  Energy initial, next-to-last, final = 
        -3435.30355275     -3699.14024613      -3699.1402699
  Force two-norm initial, final = 324.923 0.0794323
  Force max component initial, final = 241.171 0.0407836
  Final line search alpha, max atom move = 0 0
  Iterations, force evaluations = 281 281

MPI task timing breakdown:
Section |  min time  |  avg time  |  max time  |%varavg| %total
---------------------------------------------------------------
Pair    | 2.8158     | 2.8158     | 2.8158     |   0.0 | 95.10
Neigh   | 0.0067344  | 0.0067344  | 0.0067344  |   0.0 |  0.23
Comm    | 0.0037439  | 0.0037439  | 0.0037439  |   0.0 |  0.13
Output  | 0.039084   | 0.039084   | 0.039084   |   0.0 |  1.32
Modify  | 0.092922   | 0.092922   | 0.092922   |   0.0 |  3.14
Other   |            | 0.002637   |            |       |  0.09

Nlocal:    41 ave 41 max 41 min
Histogram: 1 0 0 0 0 0 0 0 0 0
Nghost:    1359 ave 1359 max 1359 min
Histogram: 1 0 0 0 0 0 0 0 0 0
Neighs:    11676 ave 11676 max 11676 min
Histogram: 1 0 0 0 0 0 0 0 0 0

Total # of neighbors = 11676
Ave neighs/atom = 284.78
Neighbor list builds = 3
Dangerous builds not checked

Please see the log.cite file for references relevant to this simulation

Total wall time: 0:00:02
