 # LAMMPS data file written by Ovito Pyth
 
          41  atoms
           3  atom types
 
      0.000000000000       7.495103000000  xlo xhi
      0.000000000000       7.495178000000  ylo yhi
      0.000000000000      20.111915000000  zlo zhi
 
Masses
 
            1   63.54600000             # Cu
            2   58.69340000             # Ni
            3   15.99900000             # O
 
Atoms # charge
 
         1    1   0.000000        0.766951702219       2.660989442750       1.059237188575
         2    1   0.000000        4.513997305776       2.660996391251       1.045889550665
         3    1   0.000000        6.382115960357       0.796193997110       1.055492355382
         4    1   0.000000        0.770000967189       6.408577935982       1.046146882838
         5    1   0.000000        2.644886391941       4.529389685737       1.053586671231
         6    1   0.000000        4.508680317315       6.408558796855       1.061399549094
         7    1   0.000000        6.382099946479       4.525774748954       1.055474443814
         8    1   0.000000        0.767155001813       0.783217047442       2.725242889070
         9    1   0.000000        2.644570052725       2.660956018461       2.730108813416
        10    1   0.000000        4.512187572947       0.794311338058       2.735065183573
        11    1   0.000000        6.383154246897       2.660955748318       2.738615199552
        12    1   0.000000        2.632858997374       6.408554677270       2.727452485339
        13    1   0.000000        4.512188281838       4.527605995685       2.735072218202
        14    1   0.000000        6.393157160035       6.408551004513       2.720382397636
        15    1   0.000000        0.773724793704       2.660927064254       4.472454244104
        16    1   0.000000        2.628053323631       0.785338039572       4.478264983543
        17    1   0.000000        4.502807696544       2.660906381422       4.485032977738
        18    1   0.000000        6.400169156473       0.774268973532       4.472089354907
        19    1   0.000000        0.768713680389       6.408463795096       4.476886303527
        20    1   0.000000        2.628048102942       4.536457779062       4.478269999780
        21    1   0.000000        4.511686699268       6.408457567880       4.463023331133
        22    1   0.000000        6.400177715119       4.547532733926       4.472073440691
        23    1   0.000000        0.775011220198       0.790595724149       6.231493408876
        24    1   0.000000        4.504759683480       0.789585358101       6.177707383293
        25    1   0.000000        6.393717205707       2.660861216284       6.181041176956
        26    1   0.000000        0.775019708551       4.531067045322       6.231588030689
        27    1   0.000000        2.639991400043       6.408381380481       6.236647968628
        28    1   0.000000        4.504752270962       4.532061814684       6.177776922582
        29    1   0.000000        0.789265730027       2.660799304812       7.850941852927
        30    1   0.000000        2.662101741355       0.825290550936       7.900497491480
        31    1   0.000000        0.768867192290       6.408384276710       7.895719195706
        32    1   0.000000        2.662220005488       4.496260087857       7.900697843337
        33    1   0.000000        4.506989776154       6.408437479106       7.866987700724
        34    1   0.000000        6.369146246492       4.518211501118       7.905586645350
        35    1   0.000000        2.644889449948       0.792584992752       1.053557423372
        36    1   0.000000        0.767148680656       4.538707970281       2.725218981784
        37    1   0.000000        6.386159521663       6.408387310353       6.234047368852
        38    1   0.000000        6.369270603970       0.803350605814       7.905460332686
        39    1   0.000000        4.503559022186       2.660641561076       7.833088056855
        40    2   0.000000        2.629263754545       2.660853125634       6.170039354864
        41    3   0.000000        4.475363713307       2.661628531400       9.558586397225
