LAMMPS (3 Mar 2020)
# minimizing input file for REAX optimization
variable        dt equal 1.0

units           real
boundary        p p p
# needed for triclinic systems w large skew
box		tilt large

atom_style      charge
read_data       data.cu
  orthogonal box = (0 0 0) to (7.4951 7.49518 20.1119)
  1 by 1 by 1 MPI processor grid
  reading atoms ...
  41 atoms
  read_data CPU = 0.000992 secs

mass		1 63.5463
mass		2 58.6934
mass		3 15.9999

pair_style	reax/c NULL safezone 2.4 mincap 200
pair_coeff	* * ffield.reax.temp Cu Ni O

neighbor	2 bin
neigh_modify	every 10 delay 0 check no

fix             reax all qeq/reax 1 0.0 10.0 1e-6 reax/c

timestep        ${dt}
timestep        1

thermo          1
thermo_style    custom step etotal pe atoms
thermo_modify   lost ignore

dump            3 all custom 1 forces.dat id x y z fx fy fz
dump_modify	3 sort id

# configuration output section
min_style       quickmin
minimize        1.0e-8 1.0e-6 1000 1000
WARNING: Using 'neigh_modify every 1 delay 0 check yes' setting during minimization (src/min.cpp:190)
Neighbor list info ...
  update every 1 steps, delay 0 steps, check yes
  max neighbors/atom: 2000, page size: 100000
  master list distance cutoff = 12
  ghost atom cutoff = 12
  binsize = 6, bins = 2 2 4
  2 neighbor lists, perpetual/occasional/extra = 2 0 0
  (1) pair reax/c, perpetual
      attributes: half, newton off, ghost
      pair build: half/bin/newtoff/ghost
      stencil: half/ghost/bin/3d/newtoff
      bin: standard
  (2) fix qeq/reax, perpetual, copy from (1)
      attributes: half, newton off, ghost
      pair build: copy
      stencil: none
      bin: none
Per MPI rank memory allocation (min/avg/max) = 63.45 | 63.45 | 63.45 Mbytes
Step TotEng PotEng Atoms 
       0   -3362.2882   -3362.2882       41 
       1    -3362.273   -3362.2882       41 
       2   -3362.2573   -3362.3186       41 
       3   -3362.2407   -3362.3792       41 
       4   -3362.2232   -3362.4696       41 
       5   -3362.2049    -3362.589       41 
       6   -3362.1857   -3362.7365       41 
       7   -3362.1658    -3362.911       41 
       8   -3362.1451    -3363.111       41 
       9   -3362.1239   -3363.3348       41 
      10    -3362.102   -3363.5808       41 
      11   -3362.0797   -3363.8469       41 
      12   -3362.0571    -3364.131       41 
      13   -3362.0341   -3364.4308       41 
      14   -3362.0111   -3364.7441       41 
      15   -3361.9881   -3365.0683       41 
      16   -3361.9652   -3365.4012       41 
      17   -3361.9426   -3365.7402       41 
      18   -3361.9205   -3366.0828       41 
      19    -3361.899   -3366.4268       41 
      20   -3361.8784   -3366.7698       41 
      21   -3361.8589   -3367.1097       41 
      22   -3361.8408   -3367.4443       41 
      23   -3361.8245    -3367.772       41 
      24   -3361.8104    -3368.091       41 
      25   -3361.7991   -3368.3999       41 
      26   -3361.7913   -3368.6977       41 
      27   -3361.7878   -3368.9834       41 
      28   -3361.7894   -3369.2566       41 
      29   -3361.7973   -3369.5169       41 
      30   -3361.8123   -3369.7646       41 
      31   -3361.8353        -3370       41 
      32   -3361.8666   -3370.2237       41 
      33   -3361.9058   -3370.4366       41 
      34   -3361.9519   -3370.6395       41 
      35    -3362.003   -3370.8335       41 
      36   -3362.0569   -3371.0196       41 
      37   -3362.1113   -3371.1985       41 
      38   -3362.1641   -3371.3712       41 
      39   -3362.2143   -3371.5381       41 
      40   -3362.2611   -3371.6999       41 
      41    -3362.305   -3371.8568       41 
      42   -3362.3463   -3372.0092       41 
      43   -3362.3861   -3372.1572       41 
      44   -3362.4257   -3372.3011       41 
      45   -3362.4665   -3372.4408       41 
      46   -3362.5101   -3372.5764       41 
      47   -3362.5583   -3372.7081       41 
      48   -3362.6134   -3372.8358       41 
      49   -3362.6778   -3372.9596       41 
      50   -3362.7546   -3373.0796       41 
      51   -3362.8471   -3373.1957       41 
      52   -3362.9602   -3373.3082       41 
      53   -3363.0987   -3373.4171       41 
      54   -3363.2699   -3373.5226       41 
      55   -3363.4807    -3373.625       41 
      56   -3363.7404   -3373.7246       41 
      57   -3364.0566   -3373.8218       41 
      58   -3364.4371   -3373.9172       41 
      59   -3364.8856   -3374.0116       41 
      60   -3365.3969    -3374.106       41 
      61   -3365.9559   -3374.2017       41 
      62   -3366.5341      -3374.3       41 
      63   -3367.0944   -3374.4027       41 
      64   -3367.5992   -3374.5117       41 
      65   -3368.0202   -3374.6291       41 
      66   -3368.3434   -3374.7573       41 
      67    -3368.568   -3374.8987       41 
      68   -3368.7032   -3375.0558       41 
      69   -3368.7624   -3375.2315       41 
      70   -3368.7594   -3375.4287       41 
      71   -3368.7053   -3375.6508       41 
      72   -3368.6091   -3375.9012       41 
      73   -3368.4763   -3376.1839       41 
      74   -3368.3111   -3376.5034       41 
      75    -3368.115   -3376.8647       41 
      76   -3367.8876   -3377.2733       41 
      77   -3367.6273   -3377.7359       41 
      78   -3367.3312     -3378.26       41 
      79   -3366.9943   -3378.8548       41 
      80     -3366.61   -3379.5314       41 
      81     -3366.17   -3380.3034       41 
      82   -3365.6638   -3381.1882       41 
      83    -3365.078    -3382.208       41 
      84   -3364.3966   -3383.3914       41 
      85   -3363.6005   -3384.7763       41 
      86   -3362.6533   -3386.4108       41 
      87   -3361.5593   -3388.3568       41 
      88   -3360.2718   -3390.6903       41 
      89   -3358.7575   -3393.4992       41 
      90     -3356.98   -3396.8731       41 
      91   -3354.9051   -3400.8832       41 
      92   -3352.5187   -3405.5499       41 
      93   -3349.8734    -3410.824       41 
      94   -3347.6531   -3416.5706       41 
      95    -3344.992   -3422.5017       41 
      96   -3342.8071   -3428.2801       41 
      97   -3341.7686   -3433.5667       41 
      98    -3343.025   -3438.1041       41 
      99   -3346.7995   -3441.8962       41 
     100   -3351.6585   -3445.0659       41 
     101   -3356.0874   -3447.7634       41 
     102   -3359.8281   -3450.1385       41 
     103   -3361.1248   -3452.2928       41 
     104   -3360.7277   -3454.3214       41 
     105   -3359.9178   -3456.3028       41 
     106   -3359.0024   -3458.3038       41 
     107    -3357.894   -3460.3845       41 
     108   -3356.0882   -3462.6069       41 
     109   -3353.7742   -3465.0726       41 
     110   -3350.7127   -3467.9968       41 
     111   -3346.3159   -3471.8016       41 
     112   -3339.8639   -3477.0252       41 
     113   -3332.6218   -3483.6767       41 
     114   -3327.6103   -3490.5575       41 
     115   -3328.5584   -3496.1562       41 
     116   -3334.6649   -3500.1395       41 
     117   -3330.5534   -3503.0595       41 
     118   -3320.4605   -3505.3626       41 
     119   -3321.8802   -3507.2298       41 
     120   -3328.2121    -3508.766       41 
     121   -3333.5782   -3510.0463       41 
     122   -3335.3562   -3511.1159       41 
     123   -3334.4488   -3511.9894       41 
     124   -3328.9762   -3512.6616       41 
     125   -3315.8808    -3513.137       41 
     126   -3300.6882   -3513.4477       41 
     127   -3292.9766   -3513.6241       41 
     128   -3341.8108   -3513.6101       41 
     129   -3513.6099   -3513.6101       41 
     130   -3513.6096   -3513.6106       41 
     131   -3513.6094   -3513.6115       41 
     132   -3513.6091   -3513.6129       41 
     133   -3513.6089   -3513.6148       41 
     134   -3513.6086   -3513.6171       41 
     135   -3513.6084   -3513.6197       41 
     136   -3513.6081   -3513.6227       41 
     137   -3513.6078   -3513.6261       41 
     138   -3513.6076   -3513.6297       41 
     139   -3513.6073   -3513.6335       41 
     140    -3513.607   -3513.6375       41 
     141   -3513.6067   -3513.6417       41 
     142   -3513.6065   -3513.6459       41 
     143   -3513.6062   -3513.6501       41 
     144   -3513.6059   -3513.6543       41 
     145   -3513.6056   -3513.6584       41 
     146   -3513.6054   -3513.6624       41 
     147   -3513.6051   -3513.6662       41 
     148   -3513.6049   -3513.6697       41 
     149   -3513.6047   -3513.6729       41 
     150   -3513.6045   -3513.6759       41 
     151   -3513.6044   -3513.6785       41 
     152   -3513.6045   -3513.6807       41 
     153   -3513.6047   -3513.6825       41 
     154   -3513.6053    -3513.684       41 
     155   -3513.6067   -3513.6851       41 
     156   -3513.6095   -3513.6859       41 
     157   -3513.6152   -3513.6865       41 
     158   -3513.6235   -3513.6869       41 
     159   -3513.6292   -3513.6872       41 
     160   -3513.6306   -3513.6876       41 
     161   -3513.6307   -3513.6879       41 
     162   -3513.6307   -3513.6882       41 
     163   -3513.6307   -3513.6884       41 
     164   -3513.6307   -3513.6886       41 
     165   -3513.6306   -3513.6888       41 
     166   -3513.6306    -3513.689       41 
     167   -3513.6306   -3513.6892       41 
     168   -3513.6305   -3513.6893       41 
     169   -3513.6309   -3513.6894       41 
     170   -3513.6318   -3513.6894       41 
     171   -3513.6838   -3513.6894       41 
Loop time of 1.79083 on 1 procs for 171 steps with 41 atoms

99.8% CPU use with 1 MPI tasks x no OpenMP threads

Minimization stats:
  Stopping criterion = energy tolerance
  Energy initial, next-to-last, final = 
        -3362.28818206     -3513.68941131     -3513.68944154
  Force two-norm initial, final = 66.702 0.0744863
  Force max component initial, final = 18.5039 0.0267368
  Final line search alpha, max atom move = 0 0
  Iterations, force evaluations = 171 171

MPI task timing breakdown:
Section |  min time  |  avg time  |  max time  |%varavg| %total
---------------------------------------------------------------
Pair    | 1.7039     | 1.7039     | 1.7039     |   0.0 | 95.15
Neigh   | 0.0042877  | 0.0042877  | 0.0042877  |   0.0 |  0.24
Comm    | 0.0022423  | 0.0022423  | 0.0022423  |   0.0 |  0.13
Output  | 0.023114   | 0.023114   | 0.023114   |   0.0 |  1.29
Modify  | 0.055457   | 0.055457   | 0.055457   |   0.0 |  3.10
Other   |            | 0.001804   |            |       |  0.10

Nlocal:    41 ave 41 max 41 min
Histogram: 1 0 0 0 0 0 0 0 0 0
Nghost:    1311 ave 1311 max 1311 min
Histogram: 1 0 0 0 0 0 0 0 0 0
Neighs:    11612 ave 11612 max 11612 min
Histogram: 1 0 0 0 0 0 0 0 0 0

Total # of neighbors = 11612
Ave neighs/atom = 283.22
Neighbor list builds = 2
Dangerous builds not checked

Please see the log.cite file for references relevant to this simulation

Total wall time: 0:00:01
